
     Program BANDS v.6.6 starts on  9Oct2020 at 15:22:27 

     This program is part of the open-source Quantum ESPRESSO suite
     for quantum simulation of materials; please cite
         "P. Giannozzi et al., J. Phys.:Condens. Matter 21 395502 (2009);
         "P. Giannozzi et al., J. Phys.:Condens. Matter 29 465901 (2017);
          URL http://www.quantum-espresso.org", 
     in publications or presentations arising from this work. More details at
     http://www.quantum-espresso.org/quote

     Parallel version (MPI), running on     8 processors

     MPI processes distributed on     1 nodes
     R & G space division:  proc/nbgrp/npool/nimage =       8
     Fft bands division:     nmany     =       1

     Reading xml data from directory:

     ./outdir/Sn.save/
     file Sn.rel-pbe-dn-kjpaw_psl.1.0.0.UPF: wavefunction(s)  5S 5P 5P 4D 4D renormalized

     IMPORTANT: XC functional enforced from input :
     Exchange-correlation= PBE
                           (   1   4   3   4   0   0   0)
     Any further DFT definition will be discarded
     Please, verify this is what you really want

 
     Parallelization info
     --------------------
     sticks:   dense  smooth     PW     G-vecs:    dense   smooth      PW
     Min         154      68     20                 3540     1045     175
     Max         155      69     21                 3541     1046     178
     Sum        1237     547    163                28325     8363    1411
 

     Check: negative core charge=   -0.000001

     negative rho (up, down):  1.382E-03 0.000E+00
     Reading collected, re-writing distributed wavefunctions
     high-symmetry point:  0.3536 0.3536 0.3536   x coordinate   0.0000
     high-symmetry point:  0.0000 0.0000 0.0000   x coordinate   0.6124
     high-symmetry point:  0.0000 0.7071 0.0000   x coordinate   1.3195

     Plottable bands (eV) written to file Sn.bands.dat.gnu
     Bands written to file Sn.bands.dat

 **************************************************************************

                    xk=(   0.35355,   0.35355,   0.35355  )

     zone border point and non-symmorphic group 
     symmetry decomposition not available

 **************************************************************************

 **************************************************************************

                    xk=(   0.34648,   0.34648,   0.34648  )

     double point group C_3v (3m)  
     there are  6 classes and  3 irreducible representations
     the character table:

       E     -E    2C3   -2C3  3s_v  -3s_v
                                          
G_4    2.00 -2.00  1.00 -1.00  0.00  0.00
G_5    1.00 -1.00 -1.00  1.00  0.00  0.00
G_6    1.00 -1.00 -1.00  1.00  0.00  0.00

     imaginary part

       E     -E    2C3   -2C3  3s_v  -3s_v
                                          
G_4    0.00  0.00  0.00  0.00  0.00  0.00
G_5    0.00  0.00  0.00  0.00  1.00 -1.00
G_6    0.00  0.00  0.00  0.00 -1.00  1.00

     the symmetry operations in each class and the name of the first element:

     E             1
                                                                 
     -E           -1
                                                                 
     2C3           2    3
                                                                 
     -2C3         -2   -3
                                                                 
     3s_v          4    5   -6
                                                                 
     3s_v          6   -4   -5
                                                                 

     Band symmetry, C_3v (3m)   double point group:

     e(  1 -  2) =    -14.59507  eV     2   --> G_4   L_6      
     e(  3 -  4) =    -14.12663  eV     2   --> G_4   L_6      
     e(  5 -  6) =    -13.96548  eV     2   --> G_5   L_4      
     e(  5 -  6) =    -13.96548  eV     2   --> G_6   L_5      
     e(  7 -  8) =    -13.95848  eV     2   --> G_5   L_4      
     e(  7 -  8) =    -13.95848  eV     2   --> G_6   L_5      
     e(  9 - 10) =    -13.54879  eV     2   --> G_4   L_6      
     e( 11 - 12) =    -13.07511  eV     2   --> G_5   L_4      
     e( 11 - 12) =    -13.07511  eV     2   --> G_6   L_5      
     e( 13 - 14) =    -12.97636  eV     2   --> G_5   L_4      
     e( 13 - 14) =    -12.97636  eV     2   --> G_6   L_5      
     e( 15 - 16) =    -12.80718  eV     2   --> G_4   L_6      
     e( 17 - 18) =    -12.65631  eV     2   --> G_4   L_6      
     e( 19 - 20) =    -12.64640  eV     2   --> G_4   L_6      
     e( 21 - 22) =     -1.72918  eV     2   --> G_4   L_6      
     e( 23 - 24) =      0.88188  eV     2   --> G_4   L_6      
     e( 25 - 26) =      5.70942  eV     2   --> G_4   L_6      
     e( 27 - 28) =      6.11746  eV     2   --> G_5   L_4      
     e( 27 - 28) =      6.11746  eV     2   --> G_6   L_5      
     e( 29 - 30) =      6.76584  eV     2   --> G_4   L_6      
     e( 31 - 32) =     10.07498  eV     2   --> G_4   L_6      
     e( 33 - 34) =     10.29951  eV     2   --> G_5   L_4      
     e( 33 - 34) =     10.29951  eV     2   --> G_6   L_5      
     e( 35 - 36) =     12.79510  eV     2   --> G_4   L_6      

 **************************************************************************

 **************************************************************************

                    xk=(   0.33941,   0.33941,   0.33941  )

     Band symmetry, C_3v (3m)   double point group:

     e(  1 -  2) =    -14.59430  eV     2   --> G_4   L_6      
     e(  3 -  4) =    -14.12597  eV     2   --> G_4   L_6      
     e(  5 -  6) =    -13.96611  eV     2   --> G_5   L_4      
     e(  5 -  6) =    -13.96611  eV     2   --> G_6   L_5      
     e(  7 -  8) =    -13.95695  eV     2   --> G_5   L_4      
     e(  7 -  8) =    -13.95695  eV     2   --> G_6   L_5      
     e(  9 - 10) =    -13.54818  eV     2   --> G_4   L_6      
     e( 11 - 12) =    -13.07464  eV     2   --> G_5   L_4      
     e( 11 - 12) =    -13.07464  eV     2   --> G_6   L_5      
     e( 13 - 14) =    -12.97595  eV     2   --> G_5   L_4      
     e( 13 - 14) =    -12.97595  eV     2   --> G_6   L_5      
     e( 15 - 16) =    -12.80685  eV     2   --> G_4   L_6      
     e( 17 - 18) =    -12.65615  eV     2   --> G_4   L_6      
     e( 19 - 20) =    -12.64590  eV     2   --> G_4   L_6      
     e( 21 - 22) =     -1.73788  eV     2   --> G_4   L_6      
     e( 23 - 24) =      0.89602  eV     2   --> G_4   L_6      
     e( 25 - 26) =      5.71151  eV     2   --> G_4   L_6      
     e( 27 - 28) =      6.11957  eV     2   --> G_5   L_4      
     e( 27 - 28) =      6.11957  eV     2   --> G_6   L_5      
     e( 29 - 30) =      6.76767  eV     2   --> G_4   L_6      
     e( 31 - 32) =     10.07463  eV     2   --> G_4   L_6      
     e( 33 - 34) =     10.29967  eV     2   --> G_5   L_4      
     e( 33 - 34) =     10.29967  eV     2   --> G_6   L_5      
     e( 35 - 36) =     12.79688  eV     2   --> G_4   L_6      

 **************************************************************************

 **************************************************************************

                    xk=(   0.33234,   0.33234,   0.33234  )

     Band symmetry, C_3v (3m)   double point group:

     e(  1 -  2) =    -14.59300  eV     2   --> G_4   L_6      
     e(  3 -  4) =    -14.12486  eV     2   --> G_4   L_6      
     e(  5 -  6) =    -13.96673  eV     2   --> G_5   L_4      
     e(  5 -  6) =    -13.96673  eV     2   --> G_6   L_5      
     e(  7 -  8) =    -13.95481  eV     2   --> G_5   L_4      
     e(  7 -  8) =    -13.95481  eV     2   --> G_6   L_5      
     e(  9 - 10) =    -13.54715  eV     2   --> G_4   L_6      
     e( 11 - 12) =    -13.07384  eV     2   --> G_5   L_4      
     e( 11 - 12) =    -13.07384  eV     2   --> G_6   L_5      
     e( 13 - 14) =    -12.97527  eV     2   --> G_5   L_4      
     e( 13 - 14) =    -12.97527  eV     2   --> G_6   L_5      
     e( 15 - 16) =    -12.80629  eV     2   --> G_4   L_6      
     e( 17 - 18) =    -12.65587  eV     2   --> G_4   L_6      
     e( 19 - 20) =    -12.64507  eV     2   --> G_4   L_6      
     e( 21 - 22) =     -1.75217  eV     2   --> G_4   L_6      
     e( 23 - 24) =      0.91936  eV     2   --> G_4   L_6      
     e( 25 - 26) =      5.71497  eV     2   --> G_4   L_6      
     e( 27 - 28) =      6.12307  eV     2   --> G_5   L_4      
     e( 27 - 28) =      6.12307  eV     2   --> G_6   L_5      
     e( 29 - 30) =      6.77073  eV     2   --> G_4   L_6      
     e( 31 - 32) =     10.07403  eV     2   --> G_4   L_6      
     e( 33 - 34) =     10.29990  eV     2   --> G_5   L_4      
     e( 33 - 34) =     10.29990  eV     2   --> G_6   L_5      
     e( 35 - 36) =     12.79973  eV     2   --> G_4   L_6      

 **************************************************************************

 **************************************************************************

                    xk=(   0.32527,   0.32527,   0.32527  )

     Band symmetry, C_3v (3m)   double point group:

     e(  1 -  2) =    -14.06838  eV     2   --> G_4   L_6      
     e(  3 -  4) =    -13.97300  eV     2   --> G_4   L_6      
     e(  5 -  6) =    -13.94854  eV     2   --> G_5   L_4      
     e(  5 -  6) =    -13.94854  eV     2   --> G_6   L_5      
     e(  7 -  8) =    -13.83832  eV     2   --> G_5   L_4      
     e(  7 -  8) =    -13.83832  eV     2   --> G_6   L_5      
     e(  9 - 10) =    -13.04945  eV     2   --> G_5   L_4      
     e(  9 - 10) =    -13.04945  eV     2   --> G_6   L_5      
     e( 11 - 12) =    -12.99601  eV     2   --> G_4   L_6      
     e( 13 - 14) =    -12.82020  eV     2   --> G_5   L_4      
     e( 13 - 14) =    -12.82020  eV     2   --> G_6   L_5      
     e( 15 - 16) =    -12.74942  eV     2   --> G_4   L_6      
     e( 17 - 18) =    -12.60574  eV     2   --> G_4   L_6      
     e( 19 - 20) =    -12.53605  eV     2   --> G_4   L_6      
     e( 21 - 22) =     -1.77057  eV     2   --> G_4   L_6      
     e( 23 - 24) =      0.95519  eV     2   --> G_4   L_6      
     e( 25 - 26) =      5.71988  eV     2   --> G_4   L_6      
     e( 27 - 28) =      6.12804  eV     2   --> G_5   L_4      
     e( 27 - 28) =      6.12804  eV     2   --> G_6   L_5      
     e( 29 - 30) =      6.78688  eV     2   --> G_4   L_6      
     e( 31 - 32) =     10.07388  eV     2   --> G_4   L_6      
     e( 33 - 34) =     10.30097  eV     2   --> G_5   L_4      
     e( 33 - 34) =     10.30097  eV     2   --> G_6   L_5      
     e( 35 - 36) =     12.80481  eV     2   --> G_4   L_6      

 **************************************************************************

 **************************************************************************

                    xk=(   0.31820,   0.31820,   0.31820  )

     Band symmetry, C_3v (3m)   double point group:

     e(  1 -  2) =    -14.06791  eV     2   --> G_4   L_6      
     e(  3 -  4) =    -13.97677  eV     2   --> G_4   L_6      
     e(  5 -  6) =    -13.94793  eV     2   --> G_5   L_4      
     e(  5 -  6) =    -13.94793  eV     2   --> G_6   L_5      
     e(  7 -  8) =    -13.83817  eV     2   --> G_5   L_4      
     e(  7 -  8) =    -13.83817  eV     2   --> G_6   L_5      
     e(  9 - 10) =    -13.04853  eV     2   --> G_5   L_4      
     e(  9 - 10) =    -13.04853  eV     2   --> G_6   L_5      
     e( 11 - 12) =    -13.00104  eV     2   --> G_4   L_6      
     e( 13 - 14) =    -12.82114  eV     2   --> G_5   L_4      
     e( 13 - 14) =    -12.82114  eV     2   --> G_6   L_5      
     e( 15 - 16) =    -12.74837  eV     2   --> G_4   L_6      
     e( 17 - 18) =    -12.60619  eV     2   --> G_4   L_6      
     e( 19 - 20) =    -12.53584  eV     2   --> G_4   L_6      
     e( 21 - 22) =     -1.79496  eV     2   --> G_4   L_6      
     e( 23 - 24) =      0.99575  eV     2   --> G_4   L_6      
     e( 25 - 26) =      5.72612  eV     2   --> G_4   L_6      
     e( 27 - 28) =      6.13435  eV     2   --> G_5   L_4      
     e( 27 - 28) =      6.13435  eV     2   --> G_6   L_5      
     e( 29 - 30) =      6.79217  eV     2   --> G_4   L_6      
     e( 31 - 32) =     10.07262  eV     2   --> G_4   L_6      
     e( 33 - 34) =     10.30121  eV     2   --> G_5   L_4      
     e( 33 - 34) =     10.30121  eV     2   --> G_6   L_5      
     e( 35 - 36) =     12.80921  eV     2   --> G_4   L_6      

 **************************************************************************

 **************************************************************************

                    xk=(   0.31113,   0.31113,   0.31113  )

     Band symmetry, C_3v (3m)   double point group:

     e(  1 -  2) =    -14.06707  eV     2   --> G_4   L_6      
     e(  3 -  4) =    -13.97998  eV     2   --> G_4   L_6      
     e(  5 -  6) =    -13.94703  eV     2   --> G_5   L_4      
     e(  5 -  6) =    -13.94703  eV     2   --> G_6   L_5      
     e(  7 -  8) =    -13.83771  eV     2   --> G_5   L_4      
     e(  7 -  8) =    -13.83771  eV     2   --> G_6   L_5      
     e(  9 - 10) =    -13.04725  eV     2   --> G_5   L_4      
     e(  9 - 10) =    -13.04725  eV     2   --> G_6   L_5      
     e( 11 - 12) =    -13.00551  eV     2   --> G_4   L_6      
     e( 13 - 14) =    -12.82179  eV     2   --> G_5   L_4      
     e( 13 - 14) =    -12.82179  eV     2   --> G_6   L_5      
     e( 15 - 16) =    -12.74710  eV     2   --> G_4   L_6      
     e( 17 - 18) =    -12.60639  eV     2   --> G_4   L_6      
     e( 19 - 20) =    -12.53540  eV     2   --> G_4   L_6      
     e( 21 - 22) =     -1.82374  eV     2   --> G_4   L_6      
     e( 23 - 24) =      1.04430  eV     2   --> G_4   L_6      
     e( 25 - 26) =      5.73374  eV     2   --> G_4   L_6      
     e( 27 - 28) =      6.14205  eV     2   --> G_5   L_4      
     e( 27 - 28) =      6.14205  eV     2   --> G_6   L_5      
     e( 29 - 30) =      6.79865  eV     2   --> G_4   L_6      
     e( 31 - 32) =     10.07096  eV     2   --> G_4   L_6      
     e( 33 - 34) =     10.30136  eV     2   --> G_5   L_4      
     e( 33 - 34) =     10.30136  eV     2   --> G_6   L_5      
     e( 35 - 36) =     12.81380  eV     2   --> G_4   L_6      

 **************************************************************************

 **************************************************************************

                    xk=(   0.30406,   0.30406,   0.30406  )

     Band symmetry, C_3v (3m)   double point group:

     e(  1 -  2) =    -14.03931  eV     2   --> G_4   L_6      
     e(  3 -  4) =    -13.92049  eV     2   --> G_5   L_4      
     e(  3 -  4) =    -13.92049  eV     2   --> G_6   L_5      
     e(  5 -  6) =    -13.82415  eV     2   --> G_4   L_6      
     e(  7 -  8) =    -13.61492  eV     2   --> G_5   L_4      
     e(  7 -  8) =    -13.61492  eV     2   --> G_6   L_5      
     e(  9 - 10) =    -13.00182  eV     2   --> G_5   L_4      
     e(  9 - 10) =    -13.00182  eV     2   --> G_6   L_5      
     e( 11 - 12) =    -12.88643  eV     2   --> G_4   L_6      
     e( 13 - 14) =    -12.73758  eV     2   --> G_4   L_6      
     e( 15 - 16) =    -12.66550  eV     2   --> G_5   L_4      
     e( 15 - 16) =    -12.66550  eV     2   --> G_6   L_5      
     e( 17 - 18) =    -12.51674  eV     2   --> G_4   L_6      
     e( 19 - 20) =    -12.48136  eV     2   --> G_4   L_6      
     e( 21 - 22) =     -1.85637  eV     2   --> G_4   L_6      
     e( 23 - 24) =      1.10034  eV     2   --> G_4   L_6      
     e( 25 - 26) =      5.74293  eV     2   --> G_4   L_6      
     e( 27 - 28) =      6.15134  eV     2   --> G_5   L_4      
     e( 27 - 28) =      6.15134  eV     2   --> G_6   L_5      
     e( 29 - 30) =      6.80632  eV     2   --> G_4   L_6      
     e( 31 - 32) =     10.07506  eV     2   --> G_4   L_6      
     e( 33 - 34) =     10.30785  eV     2   --> G_5   L_4      
     e( 33 - 34) =     10.30785  eV     2   --> G_6   L_5      
     e( 35 - 36) =     12.81791  eV     2   --> G_4   L_6      

 **************************************************************************

 **************************************************************************

                    xk=(   0.29698,   0.29698,   0.29698  )

     Band symmetry, C_3v (3m)   double point group:

     e(  1 -  2) =    -14.03644  eV     2   --> G_4   L_6      
     e(  3 -  4) =    -13.91787  eV     2   --> G_5   L_4      
     e(  3 -  4) =    -13.91787  eV     2   --> G_6   L_5      
     e(  5 -  6) =    -13.82843  eV     2   --> G_4   L_6      
     e(  7 -  8) =    -13.61608  eV     2   --> G_5   L_4      
     e(  7 -  8) =    -13.61608  eV     2   --> G_6   L_5      
     e(  9 - 10) =    -12.99949  eV     2   --> G_5   L_4      
     e(  9 - 10) =    -12.99949  eV     2   --> G_6   L_5      
     e( 11 - 12) =    -12.89022  eV     2   --> G_4   L_6      
     e( 13 - 14) =    -12.73629  eV     2   --> G_4   L_6      
     e( 15 - 16) =    -12.66761  eV     2   --> G_5   L_4      
     e( 15 - 16) =    -12.66761  eV     2   --> G_6   L_5      
     e( 17 - 18) =    -12.51609  eV     2   --> G_4   L_6      
     e( 19 - 20) =    -12.48236  eV     2   --> G_4   L_6      
     e( 21 - 22) =     -1.89242  eV     2   --> G_4   L_6      
     e( 23 - 24) =      1.16333  eV     2   --> G_4   L_6      
     e( 25 - 26) =      5.75327  eV     2   --> G_4   L_6      
     e( 27 - 28) =      6.16181  eV     2   --> G_5   L_4      
     e( 27 - 28) =      6.16181  eV     2   --> G_6   L_5      
     e( 29 - 30) =      6.81515  eV     2   --> G_4   L_6      
     e( 31 - 32) =     10.07219  eV     2   --> G_4   L_6      
     e( 33 - 34) =     10.30743  eV     2   --> G_5   L_4      
     e( 33 - 34) =     10.30743  eV     2   --> G_6   L_5      
     e( 35 - 36) =     12.82045  eV     2   --> G_4   L_6      

 **************************************************************************

 **************************************************************************

                    xk=(   0.28991,   0.28991,   0.28991  )

     Band symmetry, C_3v (3m)   double point group:

     e(  1 -  2) =    -14.03311  eV     2   --> G_4   L_6      
     e(  3 -  4) =    -13.91491  eV     2   --> G_5   L_4      
     e(  3 -  4) =    -13.91491  eV     2   --> G_6   L_5      
     e(  5 -  6) =    -13.83220  eV     2   --> G_4   L_6      
     e(  7 -  8) =    -13.61698  eV     2   --> G_5   L_4      
     e(  7 -  8) =    -13.61698  eV     2   --> G_6   L_5      
     e(  9 - 10) =    -12.99678  eV     2   --> G_5   L_4      
     e(  9 - 10) =    -12.99678  eV     2   --> G_6   L_5      
     e( 11 - 12) =    -12.89350  eV     2   --> G_4   L_6      
     e( 13 - 14) =    -12.73475  eV     2   --> G_4   L_6      
     e( 15 - 16) =    -12.66943  eV     2   --> G_5   L_4      
     e( 15 - 16) =    -12.66943  eV     2   --> G_6   L_5      
     e( 17 - 18) =    -12.51520  eV     2   --> G_4   L_6      
     e( 19 - 20) =    -12.48312  eV     2   --> G_4   L_6      
     e( 21 - 22) =     -1.93133  eV     2   --> G_4   L_6      
     e( 23 - 24) =      1.23274  eV     2   --> G_4   L_6      
     e( 25 - 26) =      5.76496  eV     2   --> G_4   L_6      
     e( 27 - 28) =      6.17364  eV     2   --> G_5   L_4      
     e( 27 - 28) =      6.17364  eV     2   --> G_6   L_5      
     e( 29 - 30) =      6.82513  eV     2   --> G_4   L_6      
     e( 31 - 32) =     10.06862  eV     2   --> G_4   L_6      
     e( 33 - 34) =     10.30661  eV     2   --> G_5   L_4      
     e( 33 - 34) =     10.30661  eV     2   --> G_6   L_5      
     e( 35 - 36) =     12.81968  eV     2   --> G_4   L_6      

 **************************************************************************

 **************************************************************************

                    xk=(   0.28284,   0.28284,   0.28284  )

     Band symmetry, C_3v (3m)   double point group:

     e(  1 -  2) =    -14.02932  eV     2   --> G_4   L_6      
     e(  3 -  4) =    -13.91161  eV     2   --> G_5   L_4      
     e(  3 -  4) =    -13.91161  eV     2   --> G_6   L_5      
     e(  5 -  6) =    -13.83546  eV     2   --> G_4   L_6      
     e(  7 -  8) =    -13.61760  eV     2   --> G_5   L_4      
     e(  7 -  8) =    -13.61760  eV     2   --> G_6   L_5      
     e(  9 - 10) =    -12.99369  eV     2   --> G_5   L_4      
     e(  9 - 10) =    -12.99369  eV     2   --> G_6   L_5      
     e( 11 - 12) =    -12.89628  eV     2   --> G_4   L_6      
     e( 13 - 14) =    -12.73294  eV     2   --> G_4   L_6      
     e( 15 - 16) =    -12.67097  eV     2   --> G_5   L_4      
     e( 15 - 16) =    -12.67097  eV     2   --> G_6   L_5      
     e( 17 - 18) =    -12.51407  eV     2   --> G_4   L_6      
     e( 19 - 20) =    -12.48362  eV     2   --> G_4   L_6      
     e( 21 - 22) =     -1.97264  eV     2   --> G_4   L_6      
     e( 23 - 24) =      1.30808  eV     2   --> G_4   L_6      
     e( 25 - 26) =      5.77799  eV     2   --> G_4   L_6      
     e( 27 - 28) =      6.18684  eV     2   --> G_5   L_4      
     e( 27 - 28) =      6.18684  eV     2   --> G_6   L_5      
     e( 29 - 30) =      6.83625  eV     2   --> G_4   L_6      
     e( 31 - 32) =     10.06424  eV     2   --> G_4   L_6      
     e( 33 - 34) =     10.30527  eV     2   --> G_5   L_4      
     e( 33 - 34) =     10.30527  eV     2   --> G_6   L_5      
     e( 35 - 36) =     12.81276  eV     2   --> G_4   L_6      

 **************************************************************************

 **************************************************************************

                    xk=(   0.27577,   0.27577,   0.27577  )

     Band symmetry, C_3v (3m)   double point group:

     e(  1 -  2) =    -14.02506  eV     2   --> G_4   L_6      
     e(  3 -  4) =    -13.90798  eV     2   --> G_5   L_4      
     e(  3 -  4) =    -13.90798  eV     2   --> G_6   L_5      
     e(  5 -  6) =    -13.83820  eV     2   --> G_4   L_6      
     e(  7 -  8) =    -13.61795  eV     2   --> G_5   L_4      
     e(  7 -  8) =    -13.61795  eV     2   --> G_6   L_5      
     e(  9 - 10) =    -12.99023  eV     2   --> G_5   L_4      
     e(  9 - 10) =    -12.99023  eV     2   --> G_6   L_5      
     e( 11 - 12) =    -12.89855  eV     2   --> G_4   L_6      
     e( 13 - 14) =    -12.73089  eV     2   --> G_4   L_6      
     e( 15 - 16) =    -12.67223  eV     2   --> G_5   L_4      
     e( 15 - 16) =    -12.67223  eV     2   --> G_6   L_5      
     e( 17 - 18) =    -12.51271  eV     2   --> G_4   L_6      
     e( 19 - 20) =    -12.48389  eV     2   --> G_4   L_6      
     e( 21 - 22) =     -2.01587  eV     2   --> G_4   L_6      
     e( 23 - 24) =      1.38888  eV     2   --> G_4   L_6      
     e( 25 - 26) =      5.79234  eV     2   --> G_4   L_6      
     e( 27 - 28) =      6.20138  eV     2   --> G_5   L_4      
     e( 27 - 28) =      6.20138  eV     2   --> G_6   L_5      
     e( 29 - 30) =      6.84849  eV     2   --> G_4   L_6      
     e( 31 - 32) =     10.05892  eV     2   --> G_4   L_6      
     e( 33 - 34) =     10.30325  eV     2   --> G_5   L_4      
     e( 33 - 34) =     10.30325  eV     2   --> G_6   L_5      
     e( 35 - 36) =     12.79512  eV     2   --> G_4   L_6      

 **************************************************************************

 **************************************************************************

                    xk=(   0.26870,   0.26870,   0.26870  )

     Band symmetry, C_3v (3m)   double point group:

     e(  1 -  2) =    -14.18046  eV     2   --> G_4   L_6      
     e(  3 -  4) =    -13.97760  eV     2   --> G_5   L_4      
     e(  3 -  4) =    -13.97760  eV     2   --> G_6   L_5      
     e(  5 -  6) =    -13.92255  eV     2   --> G_4   L_6      
     e(  7 -  8) =    -13.75098  eV     2   --> G_5   L_4      
     e(  7 -  8) =    -13.75098  eV     2   --> G_6   L_5      
     e(  9 - 10) =    -13.06515  eV     2   --> G_5   L_4      
     e(  9 - 10) =    -13.06515  eV     2   --> G_6   L_5      
     e( 11 - 12) =    -13.06360  eV     2   --> G_4   L_6      
     e( 13 - 14) =    -12.81833  eV     2   --> G_5   L_4      
     e( 13 - 14) =    -12.81833  eV     2   --> G_6   L_5      
     e( 15 - 16) =    -12.75569  eV     2   --> G_4   L_6      
     e( 17 - 18) =    -12.54110  eV     2   --> G_4   L_6      
     e( 19 - 20) =    -12.50681  eV     2   --> G_4   L_6      
     e( 21 - 22) =     -2.06063  eV     2   --> G_4   L_6      
     e( 23 - 24) =      1.47426  eV     2   --> G_4   L_6      
     e( 25 - 26) =      5.80773  eV     2   --> G_4   L_6      
     e( 27 - 28) =      6.21699  eV     2   --> G_5   L_4      
     e( 27 - 28) =      6.21699  eV     2   --> G_6   L_5      
     e( 29 - 30) =      6.86103  eV     2   --> G_4   L_6      
     e( 31 - 32) =     10.04975  eV     2   --> G_4   L_6      
     e( 33 - 34) =     10.29745  eV     2   --> G_5   L_4      
     e( 33 - 34) =     10.29745  eV     2   --> G_6   L_5      
     e( 35 - 36) =     12.76023  eV     2   --> G_4   L_6      

 **************************************************************************

 **************************************************************************

                    xk=(   0.26163,   0.26163,   0.26163  )

     Band symmetry, C_3v (3m)   double point group:

     e(  1 -  2) =    -14.17908  eV     2   --> G_4   L_6      
     e(  3 -  4) =    -13.97423  eV     2   --> G_5   L_4      
     e(  3 -  4) =    -13.97423  eV     2   --> G_6   L_5      
     e(  5 -  6) =    -13.92214  eV     2   --> G_4   L_6      
     e(  7 -  8) =    -13.75218  eV     2   --> G_5   L_4      
     e(  7 -  8) =    -13.75218  eV     2   --> G_6   L_5      
     e(  9 - 10) =    -13.06587  eV     2   --> G_4   L_6      
     e( 11 - 12) =    -13.06200  eV     2   --> G_5   L_4      
     e( 11 - 12) =    -13.06200  eV     2   --> G_6   L_5      
     e( 13 - 14) =    -12.82005  eV     2   --> G_5   L_4      
     e( 13 - 14) =    -12.82005  eV     2   --> G_6   L_5      
     e( 15 - 16) =    -12.75364  eV     2   --> G_4   L_6      
     e( 17 - 18) =    -12.54047  eV     2   --> G_4   L_6      
     e( 19 - 20) =    -12.50622  eV     2   --> G_4   L_6      
     e( 21 - 22) =     -2.10652  eV     2   --> G_4   L_6      
     e( 23 - 24) =      1.56468  eV     2   --> G_4   L_6      
     e( 25 - 26) =      5.82465  eV     2   --> G_4   L_6      
     e( 27 - 28) =      6.23415  eV     2   --> G_5   L_4      
     e( 27 - 28) =      6.23415  eV     2   --> G_6   L_5      
     e( 29 - 30) =      6.87544  eV     2   --> G_4   L_6      
     e( 31 - 32) =     10.04219  eV     2   --> G_4   L_6      
     e( 33 - 34) =     10.29367  eV     2   --> G_5   L_4      
     e( 33 - 34) =     10.29367  eV     2   --> G_6   L_5      
     e( 35 - 36) =     12.70174  eV     2   --> G_4   L_6      

 **************************************************************************

 **************************************************************************

                    xk=(   0.25456,   0.25456,   0.25456  )

     Band symmetry, C_3v (3m)   double point group:

     e(  1 -  2) =    -14.17738  eV     2   --> G_4   L_6      
     e(  3 -  4) =    -13.97058  eV     2   --> G_5   L_4      
     e(  3 -  4) =    -13.97058  eV     2   --> G_6   L_5      
     e(  5 -  6) =    -13.92113  eV     2   --> G_4   L_6      
     e(  7 -  8) =    -13.75305  eV     2   --> G_5   L_4      
     e(  7 -  8) =    -13.75305  eV     2   --> G_6   L_5      
     e(  9 - 10) =    -13.06755  eV     2   --> G_4   L_6      
     e( 11 - 12) =    -13.05855  eV     2   --> G_5   L_4      
     e( 11 - 12) =    -13.05855  eV     2   --> G_6   L_5      
     e( 13 - 14) =    -12.82143  eV     2   --> G_5   L_4      
     e( 13 - 14) =    -12.82143  eV     2   --> G_6   L_5      
     e( 15 - 16) =    -12.75134  eV     2   --> G_4   L_6      
     e( 17 - 18) =    -12.53969  eV     2   --> G_4   L_6      
     e( 19 - 20) =    -12.50533  eV     2   --> G_4   L_6      
     e( 21 - 22) =     -2.15320  eV     2   --> G_4   L_6      
     e( 23 - 24) =      1.65934  eV     2   --> G_4   L_6      
     e( 25 - 26) =      5.84285  eV     2   --> G_4   L_6      
     e( 27 - 28) =      6.25261  eV     2   --> G_5   L_4      
     e( 27 - 28) =      6.25261  eV     2   --> G_6   L_5      
     e( 29 - 30) =      6.89089  eV     2   --> G_4   L_6      
     e( 31 - 32) =     10.03327  eV     2   --> G_4   L_6      
     e( 33 - 34) =     10.28872  eV     2   --> G_5   L_4      
     e( 33 - 34) =     10.28872  eV     2   --> G_6   L_5      
     e( 35 - 36) =     12.61753  eV     2   --> G_4   L_6      

 **************************************************************************

 **************************************************************************

                    xk=(   0.24749,   0.24749,   0.24749  )

     Band symmetry, C_3v (3m)   double point group:

     e(  1 -  2) =    -14.27653  eV     2   --> G_4   L_6      
     e(  3 -  4) =    -13.97468  eV     2   --> G_5   L_4      
     e(  3 -  4) =    -13.97468  eV     2   --> G_6   L_5      
     e(  5 -  6) =    -13.92426  eV     2   --> G_4   L_6      
     e(  7 -  8) =    -13.75417  eV     2   --> G_5   L_4      
     e(  7 -  8) =    -13.75417  eV     2   --> G_6   L_5      
     e(  9 - 10) =    -13.22820  eV     2   --> G_4   L_6      
     e( 11 - 12) =    -13.06317  eV     2   --> G_5   L_4      
     e( 11 - 12) =    -13.06317  eV     2   --> G_6   L_5      
     e( 13 - 14) =    -12.82260  eV     2   --> G_5   L_4      
     e( 13 - 14) =    -12.82260  eV     2   --> G_6   L_5      
     e( 15 - 16) =    -12.81381  eV     2   --> G_4   L_6      
     e( 17 - 18) =    -12.61975  eV     2   --> G_4   L_6      
     e( 19 - 20) =    -12.53284  eV     2   --> G_4   L_6      
     e( 21 - 22) =     -2.20101  eV     2   --> G_4   L_6      
     e( 23 - 24) =      1.75541  eV     2   --> G_4   L_6      
     e( 25 - 26) =      5.86226  eV     2   --> G_4   L_6      
     e( 27 - 28) =      6.27234  eV     2   --> G_5   L_4      
     e( 27 - 28) =      6.27234  eV     2   --> G_6   L_5      
     e( 29 - 30) =      6.90702  eV     2   --> G_4   L_6      
     e( 31 - 32) =     10.02284  eV     2   --> G_4   L_6      
     e( 33 - 34) =     10.28242  eV     2   --> G_5   L_4      
     e( 33 - 34) =     10.28242  eV     2   --> G_6   L_5      
     e( 35 - 36) =     12.51177  eV     2   --> G_4   L_6      

 **************************************************************************

 **************************************************************************

                    xk=(   0.24042,   0.24042,   0.24042  )

     Band symmetry, C_3v (3m)   double point group:

     e(  1 -  2) =    -14.27558  eV     2   --> G_4   L_6      
     e(  3 -  4) =    -13.97058  eV     2   --> G_5   L_4      
     e(  3 -  4) =    -13.97058  eV     2   --> G_6   L_5      
     e(  5 -  6) =    -13.92272  eV     2   --> G_4   L_6      
     e(  7 -  8) =    -13.75443  eV     2   --> G_5   L_4      
     e(  7 -  8) =    -13.75443  eV     2   --> G_6   L_5      
     e(  9 - 10) =    -13.23079  eV     2   --> G_4   L_6      
     e( 11 - 12) =    -13.05929  eV     2   --> G_5   L_4      
     e( 11 - 12) =    -13.05929  eV     2   --> G_6   L_5      
     e( 13 - 14) =    -12.82329  eV     2   --> G_5   L_4      
     e( 13 - 14) =    -12.82329  eV     2   --> G_6   L_5      
     e( 15 - 16) =    -12.81170  eV     2   --> G_4   L_6      
     e( 17 - 18) =    -12.61812  eV     2   --> G_4   L_6      
     e( 19 - 20) =    -12.53254  eV     2   --> G_4   L_6      
     e( 21 - 22) =     -2.24834  eV     2   --> G_4   L_6      
     e( 23 - 24) =      1.85741  eV     2   --> G_4   L_6      
     e( 25 - 26) =      5.88293  eV     2   --> G_4   L_6      
     e( 27 - 28) =      6.29334  eV     2   --> G_5   L_4      
     e( 27 - 28) =      6.29334  eV     2   --> G_6   L_5      
     e( 29 - 30) =      6.92445  eV     2   --> G_4   L_6      
     e( 31 - 32) =     10.01077  eV     2   --> G_4   L_6      
     e( 33 - 34) =     10.27461  eV     2   --> G_5   L_4      
     e( 33 - 34) =     10.27461  eV     2   --> G_6   L_5      
     e( 35 - 36) =     12.39122  eV     2   --> G_4   L_6      

 **************************************************************************

 **************************************************************************

                    xk=(   0.23335,   0.23335,   0.23335  )

     Band symmetry, C_3v (3m)   double point group:

     e(  1 -  2) =    -14.25570  eV     2   --> G_4   L_6      
     e(  3 -  4) =    -13.92377  eV     2   --> G_5   L_4      
     e(  3 -  4) =    -13.92377  eV     2   --> G_6   L_5      
     e(  5 -  6) =    -13.80834  eV     2   --> G_4   L_6      
     e(  7 -  8) =    -13.66466  eV     2   --> G_5   L_4      
     e(  7 -  8) =    -13.66466  eV     2   --> G_6   L_5      
     e(  9 - 10) =    -13.23054  eV     2   --> G_4   L_6      
     e( 11 - 12) =    -13.04160  eV     2   --> G_5   L_4      
     e( 11 - 12) =    -13.04160  eV     2   --> G_6   L_5      
     e( 13 - 14) =    -12.76928  eV     2   --> G_4   L_6      
     e( 15 - 16) =    -12.74326  eV     2   --> G_5   L_4      
     e( 15 - 16) =    -12.74326  eV     2   --> G_6   L_5      
     e( 17 - 18) =    -12.61575  eV     2   --> G_4   L_6      
     e( 19 - 20) =    -12.47984  eV     2   --> G_4   L_6      
     e( 21 - 22) =     -2.29565  eV     2   --> G_4   L_6      
     e( 23 - 24) =      1.96274  eV     2   --> G_4   L_6      
     e( 25 - 26) =      5.90538  eV     2   --> G_4   L_6      
     e( 27 - 28) =      6.31613  eV     2   --> G_5   L_4      
     e( 27 - 28) =      6.31613  eV     2   --> G_6   L_5      
     e( 29 - 30) =      6.94281  eV     2   --> G_4   L_6      
     e( 31 - 32) =      9.99818  eV     2   --> G_4   L_6      
     e( 33 - 34) =     10.26625  eV     2   --> G_5   L_4      
     e( 33 - 34) =     10.26625  eV     2   --> G_6   L_5      
     e( 35 - 36) =     12.26163  eV     2   --> G_4   L_6      

 **************************************************************************

 **************************************************************************

                    xk=(   0.22627,   0.22627,   0.22627  )

     Band symmetry, C_3v (3m)   double point group:

     e(  1 -  2) =    -14.29771  eV     2   --> G_4   L_6      
     e(  3 -  4) =    -14.04998  eV     2   --> G_4   L_6      
     e(  5 -  6) =    -13.95353  eV     2   --> G_5   L_4      
     e(  5 -  6) =    -13.95353  eV     2   --> G_6   L_5      
     e(  7 -  8) =    -13.78546  eV     2   --> G_5   L_4      
     e(  7 -  8) =    -13.78546  eV     2   --> G_6   L_5      
     e(  9 - 10) =    -13.24248  eV     2   --> G_4   L_6      
     e( 11 - 12) =    -13.12622  eV     2   --> G_5   L_4      
     e( 11 - 12) =    -13.12622  eV     2   --> G_6   L_5      
     e( 13 - 14) =    -12.91893  eV     2   --> G_4   L_6      
     e( 15 - 16) =    -12.84871  eV     2   --> G_5   L_4      
     e( 15 - 16) =    -12.84871  eV     2   --> G_6   L_5      
     e( 17 - 18) =    -12.71703  eV     2   --> G_4   L_6      
     e( 19 - 20) =    -12.49517  eV     2   --> G_4   L_6      
     e( 21 - 22) =     -2.34325  eV     2   --> G_4   L_6      
     e( 23 - 24) =      2.07092  eV     2   --> G_4   L_6      
     e( 25 - 26) =      5.92823  eV     2   --> G_4   L_6      
     e( 27 - 28) =      6.33941  eV     2   --> G_5   L_4      
     e( 27 - 28) =      6.33941  eV     2   --> G_6   L_5      
     e( 29 - 30) =      6.96124  eV     2   --> G_4   L_6      
     e( 31 - 32) =      9.98232  eV     2   --> G_4   L_6      
     e( 33 - 34) =     10.25474  eV     2   --> G_5   L_4      
     e( 33 - 34) =     10.25474  eV     2   --> G_6   L_5      
     e( 35 - 36) =     12.12625  eV     2   --> G_4   L_6      

 **************************************************************************

 **************************************************************************

                    xk=(   0.21920,   0.21920,   0.21920  )

     Band symmetry, C_3v (3m)   double point group:

     e(  1 -  2) =    -14.29559  eV     2   --> G_4   L_6      
     e(  3 -  4) =    -14.05124  eV     2   --> G_4   L_6      
     e(  5 -  6) =    -13.94943  eV     2   --> G_5   L_4      
     e(  5 -  6) =    -13.94943  eV     2   --> G_6   L_5      
     e(  7 -  8) =    -13.78738  eV     2   --> G_5   L_4      
     e(  7 -  8) =    -13.78738  eV     2   --> G_6   L_5      
     e(  9 - 10) =    -13.24331  eV     2   --> G_4   L_6      
     e( 11 - 12) =    -13.12257  eV     2   --> G_5   L_4      
     e( 11 - 12) =    -13.12257  eV     2   --> G_6   L_5      
     e( 13 - 14) =    -12.91868  eV     2   --> G_4   L_6      
     e( 15 - 16) =    -12.84987  eV     2   --> G_5   L_4      
     e( 15 - 16) =    -12.84987  eV     2   --> G_6   L_5      
     e( 17 - 18) =    -12.71431  eV     2   --> G_4   L_6      
     e( 19 - 20) =    -12.49469  eV     2   --> G_4   L_6      
     e( 21 - 22) =     -2.38991  eV     2   --> G_4   L_6      
     e( 23 - 24) =      2.18215  eV     2   --> G_4   L_6      
     e( 25 - 26) =      5.95238  eV     2   --> G_4   L_6      
     e( 27 - 28) =      6.36403  eV     2   --> G_5   L_4      
     e( 27 - 28) =      6.36403  eV     2   --> G_6   L_5      
     e( 29 - 30) =      6.98118  eV     2   --> G_4   L_6      
     e( 31 - 32) =      9.96461  eV     2   --> G_4   L_6      
     e( 33 - 34) =     10.24134  eV     2   --> G_5   L_4      
     e( 33 - 34) =     10.24134  eV     2   --> G_6   L_5      
     e( 35 - 36) =     11.98875  eV     2   --> G_4   L_6      

 **************************************************************************

 **************************************************************************

                    xk=(   0.21213,   0.21213,   0.21213  )

     Band symmetry, C_3v (3m)   double point group:

     e(  1 -  2) =    -14.31741  eV     2   --> G_4   L_6      
     e(  3 -  4) =    -14.09285  eV     2   --> G_4   L_6      
     e(  5 -  6) =    -14.07137  eV     2   --> G_5   L_4      
     e(  5 -  6) =    -14.07137  eV     2   --> G_6   L_5      
     e(  7 -  8) =    -13.85968  eV     2   --> G_5   L_4      
     e(  7 -  8) =    -13.85968  eV     2   --> G_6   L_5      
     e(  9 - 10) =    -13.27053  eV     2   --> G_4   L_6      
     e( 11 - 12) =    -13.22005  eV     2   --> G_5   L_4      
     e( 11 - 12) =    -13.22005  eV     2   --> G_6   L_5      
     e( 13 - 14) =    -13.04832  eV     2   --> G_4   L_6      
     e( 15 - 16) =    -12.94208  eV     2   --> G_4   L_6      
     e( 17 - 18) =    -12.90078  eV     2   --> G_5   L_4      
     e( 17 - 18) =    -12.90078  eV     2   --> G_6   L_5      
     e( 19 - 20) =    -12.58569  eV     2   --> G_4   L_6      
     e( 21 - 22) =     -2.43680  eV     2   --> G_4   L_6      
     e( 23 - 24) =      2.29516  eV     2   --> G_4   L_6      
     e( 25 - 26) =      5.97576  eV     2   --> G_4   L_6      
     e( 27 - 28) =      6.38804  eV     2   --> G_5   L_4      
     e( 27 - 28) =      6.38804  eV     2   --> G_6   L_5      
     e( 29 - 30) =      7.00122  eV     2   --> G_4   L_6      
     e( 31 - 32) =      9.94108  eV     2   --> G_4   L_6      
     e( 33 - 34) =     10.22202  eV     2   --> G_5   L_4      
     e( 33 - 34) =     10.22202  eV     2   --> G_6   L_5      
     e( 35 - 36) =     11.84906  eV     2   --> G_4   L_6      

 **************************************************************************

 **************************************************************************

                    xk=(   0.20506,   0.20506,   0.20506  )

     Band symmetry, C_3v (3m)   double point group:

     e(  1 -  2) =    -14.31397  eV     2   --> G_4   L_6      
     e(  3 -  4) =    -14.06039  eV     2   --> G_5   L_4      
     e(  3 -  4) =    -14.06039  eV     2   --> G_6   L_5      
     e(  5 -  6) =    -13.95868  eV     2   --> G_4   L_6      
     e(  7 -  8) =    -13.76748  eV     2   --> G_5   L_4      
     e(  7 -  8) =    -13.76748  eV     2   --> G_6   L_5      
     e(  9 - 10) =    -13.25996  eV     2   --> G_4   L_6      
     e( 11 - 12) =    -13.20361  eV     2   --> G_5   L_4      
     e( 11 - 12) =    -13.20361  eV     2   --> G_6   L_5      
     e( 13 - 14) =    -12.94986  eV     2   --> G_4   L_6      
     e( 15 - 16) =    -12.93648  eV     2   --> G_4   L_6      
     e( 17 - 18) =    -12.82276  eV     2   --> G_5   L_4      
     e( 17 - 18) =    -12.82276  eV     2   --> G_6   L_5      
     e( 19 - 20) =    -12.58063  eV     2   --> G_4   L_6      
     e( 21 - 22) =     -2.48204  eV     2   --> G_4   L_6      
     e( 23 - 24) =      2.41145  eV     2   --> G_4   L_6      
     e( 25 - 26) =      6.00221  eV     2   --> G_4   L_6      
     e( 27 - 28) =      6.41507  eV     2   --> G_5   L_4      
     e( 27 - 28) =      6.41507  eV     2   --> G_6   L_5      
     e( 29 - 30) =      7.02331  eV     2   --> G_4   L_6      
     e( 31 - 32) =      9.91937  eV     2   --> G_4   L_6      
     e( 33 - 34) =     10.20444  eV     2   --> G_5   L_4      
     e( 33 - 34) =     10.20444  eV     2   --> G_6   L_5      
     e( 35 - 36) =     11.71027  eV     2   --> G_4   L_6      

 **************************************************************************

 **************************************************************************

                    xk=(   0.19799,   0.19799,   0.19799  )

     Band symmetry, C_3v (3m)   double point group:

     e(  1 -  2) =    -14.22092  eV     2   --> G_4   L_6      
     e(  3 -  4) =    -14.02775  eV     2   --> G_5   L_4      
     e(  3 -  4) =    -14.02775  eV     2   --> G_6   L_5      
     e(  5 -  6) =    -13.85291  eV     2   --> G_4   L_6      
     e(  7 -  8) =    -13.63411  eV     2   --> G_5   L_4      
     e(  7 -  8) =    -13.63411  eV     2   --> G_6   L_5      
     e(  9 - 10) =    -13.16402  eV     2   --> G_4   L_6      
     e( 11 - 12) =    -13.15771  eV     2   --> G_5   L_4      
     e( 11 - 12) =    -13.15771  eV     2   --> G_6   L_5      
     e( 13 - 14) =    -12.93138  eV     2   --> G_4   L_6      
     e( 15 - 16) =    -12.88581  eV     2   --> G_4   L_6      
     e( 17 - 18) =    -12.59105  eV     2   --> G_5   L_4      
     e( 17 - 18) =    -12.59105  eV     2   --> G_6   L_5      
     e( 19 - 20) =    -12.44647  eV     2   --> G_4   L_6      
     e( 21 - 22) =     -2.52650  eV     2   --> G_4   L_6      
     e( 23 - 24) =      2.53037  eV     2   --> G_4   L_6      
     e( 25 - 26) =      6.03140  eV     2   --> G_4   L_6      
     e( 27 - 28) =      6.44498  eV     2   --> G_5   L_4      
     e( 27 - 28) =      6.44498  eV     2   --> G_6   L_5      
     e( 29 - 30) =      7.04557  eV     2   --> G_4   L_6      
     e( 31 - 32) =      9.89609  eV     2   --> G_4   L_6      
     e( 33 - 34) =     10.18496  eV     2   --> G_5   L_4      
     e( 33 - 34) =     10.18496  eV     2   --> G_6   L_5      
     e( 35 - 36) =     11.57172  eV     2   --> G_4   L_6      

 **************************************************************************

 **************************************************************************

                    xk=(   0.19092,   0.19092,   0.19092  )

     Band symmetry, C_3v (3m)   double point group:

     e(  1 -  2) =    -14.10763  eV     2   --> G_4   L_6      
     e(  3 -  4) =    -13.91490  eV     2   --> G_5   L_4      
     e(  3 -  4) =    -13.91490  eV     2   --> G_6   L_5      
     e(  5 -  6) =    -13.84540  eV     2   --> G_4   L_6      
     e(  7 -  8) =    -13.56736  eV     2   --> G_5   L_4      
     e(  7 -  8) =    -13.56736  eV     2   --> G_6   L_5      
     e(  9 - 10) =    -13.10617  eV     2   --> G_4   L_6      
     e( 11 - 12) =    -12.93103  eV     2   --> G_5   L_4      
     e( 11 - 12) =    -12.93103  eV     2   --> G_6   L_5      
     e( 13 - 14) =    -12.89946  eV     2   --> G_4   L_6      
     e( 15 - 16) =    -12.67377  eV     2   --> G_4   L_6      
     e( 17 - 18) =    -12.55650  eV     2   --> G_5   L_4      
     e( 17 - 18) =    -12.55650  eV     2   --> G_6   L_5      
     e( 19 - 20) =    -12.37986  eV     2   --> G_4   L_6      
     e( 21 - 22) =     -2.56989  eV     2   --> G_4   L_6      
     e( 23 - 24) =      2.65134  eV     2   --> G_4   L_6      
     e( 25 - 26) =      6.06087  eV     2   --> G_4   L_6      
     e( 27 - 28) =      6.47511  eV     2   --> G_5   L_4      
     e( 27 - 28) =      6.47511  eV     2   --> G_6   L_5      
     e( 29 - 30) =      7.06775  eV     2   --> G_4   L_6      
     e( 31 - 32) =      9.86966  eV     2   --> G_4   L_6      
     e( 33 - 34) =     10.16210  eV     2   --> G_5   L_4      
     e( 33 - 34) =     10.16210  eV     2   --> G_6   L_5      
     e( 35 - 36) =     11.43355  eV     2   --> G_4   L_6      

 **************************************************************************

 **************************************************************************

                    xk=(   0.18385,   0.18385,   0.18385  )

     Band symmetry, C_3v (3m)   double point group:

     e(  1 -  2) =    -14.10465  eV     2   --> G_4   L_6      
     e(  3 -  4) =    -13.91308  eV     2   --> G_5   L_4      
     e(  3 -  4) =    -13.91308  eV     2   --> G_6   L_5      
     e(  5 -  6) =    -13.84564  eV     2   --> G_4   L_6      
     e(  7 -  8) =    -13.56770  eV     2   --> G_5   L_4      
     e(  7 -  8) =    -13.56770  eV     2   --> G_6   L_5      
     e(  9 - 10) =    -13.10550  eV     2   --> G_4   L_6      
     e( 11 - 12) =    -12.92811  eV     2   --> G_5   L_4      
     e( 11 - 12) =    -12.92811  eV     2   --> G_6   L_5      
     e( 13 - 14) =    -12.90045  eV     2   --> G_4   L_6      
     e( 15 - 16) =    -12.67329  eV     2   --> G_4   L_6      
     e( 17 - 18) =    -12.55899  eV     2   --> G_5   L_4      
     e( 17 - 18) =    -12.55899  eV     2   --> G_6   L_5      
     e( 19 - 20) =    -12.37883  eV     2   --> G_4   L_6      
     e( 21 - 22) =     -2.61241  eV     2   --> G_4   L_6      
     e( 23 - 24) =      2.77384  eV     2   --> G_4   L_6      
     e( 25 - 26) =      6.09008  eV     2   --> G_4   L_6      
     e( 27 - 28) =      6.50513  eV     2   --> G_5   L_4      
     e( 27 - 28) =      6.50513  eV     2   --> G_6   L_5      
     e( 29 - 30) =      7.09022  eV     2   --> G_4   L_6      
     e( 31 - 32) =      9.84068  eV     2   --> G_4   L_6      
     e( 33 - 34) =     10.13634  eV     2   --> G_5   L_4      
     e( 33 - 34) =     10.13634  eV     2   --> G_6   L_5      
     e( 35 - 36) =     11.29628  eV     2   --> G_4   L_6      

 **************************************************************************

 **************************************************************************

                    xk=(   0.17678,   0.17678,   0.17678  )

     Band symmetry, C_3v (3m)   double point group:

     e(  1 -  2) =    -14.10128  eV     2   --> G_4   L_6      
     e(  3 -  4) =    -13.91103  eV     2   --> G_5   L_4      
     e(  3 -  4) =    -13.91103  eV     2   --> G_6   L_5      
     e(  5 -  6) =    -13.84543  eV     2   --> G_4   L_6      
     e(  7 -  8) =    -13.56770  eV     2   --> G_5   L_4      
     e(  7 -  8) =    -13.56770  eV     2   --> G_6   L_5      
     e(  9 - 10) =    -13.10440  eV     2   --> G_4   L_6      
     e( 11 - 12) =    -12.92484  eV     2   --> G_5   L_4      
     e( 11 - 12) =    -12.92484  eV     2   --> G_6   L_5      
     e( 13 - 14) =    -12.90106  eV     2   --> G_4   L_6      
     e( 15 - 16) =    -12.67255  eV     2   --> G_4   L_6      
     e( 17 - 18) =    -12.56116  eV     2   --> G_5   L_4      
     e( 17 - 18) =    -12.56116  eV     2   --> G_6   L_5      
     e( 19 - 20) =    -12.37754  eV     2   --> G_4   L_6      
     e( 21 - 22) =     -2.65380  eV     2   --> G_4   L_6      
     e( 23 - 24) =      2.89809  eV     2   --> G_4   L_6      
     e( 25 - 26) =      6.12010  eV     2   --> G_4   L_6      
     e( 27 - 28) =      6.53607  eV     2   --> G_5   L_4      
     e( 27 - 28) =      6.53607  eV     2   --> G_6   L_5      
     e( 29 - 30) =      7.11286  eV     2   --> G_4   L_6      
     e( 31 - 32) =      9.80952  eV     2   --> G_4   L_6      
     e( 33 - 34) =     10.10803  eV     2   --> G_5   L_4      
     e( 33 - 34) =     10.10803  eV     2   --> G_6   L_5      
     e( 35 - 36) =     11.16030  eV     2   --> G_4   L_6      

 **************************************************************************

 **************************************************************************

                    xk=(   0.16971,   0.16971,   0.16971  )

     Band symmetry, C_3v (3m)   double point group:

     e(  1 -  2) =    -13.94892  eV     2   --> G_4   L_6      
     e(  3 -  4) =    -13.81028  eV     2   --> G_5   L_4      
     e(  3 -  4) =    -13.81028  eV     2   --> G_6   L_5      
     e(  5 -  6) =    -13.70833  eV     2   --> G_4   L_6      
     e(  7 -  8) =    -13.54725  eV     2   --> G_5   L_4      
     e(  7 -  8) =    -13.54725  eV     2   --> G_6   L_5      
     e(  9 - 10) =    -13.01981  eV     2   --> G_4   L_6      
     e( 11 - 12) =    -12.73056  eV     2   --> G_4   L_6      
     e( 13 - 14) =    -12.72621  eV     2   --> G_5   L_4      
     e( 13 - 14) =    -12.72621  eV     2   --> G_6   L_5      
     e( 15 - 16) =    -12.64679  eV     2   --> G_4   L_6      
     e( 17 - 18) =    -12.54259  eV     2   --> G_5   L_4      
     e( 17 - 18) =    -12.54259  eV     2   --> G_6   L_5      
     e( 19 - 20) =    -12.34964  eV     2   --> G_4   L_6      
     e( 21 - 22) =     -2.69373  eV     2   --> G_4   L_6      
     e( 23 - 24) =      3.02476  eV     2   --> G_4   L_6      
     e( 25 - 26) =      6.15108  eV     2   --> G_4   L_6      
     e( 27 - 28) =      6.56807  eV     2   --> G_5   L_4      
     e( 27 - 28) =      6.56807  eV     2   --> G_6   L_5      
     e( 29 - 30) =      7.13718  eV     2   --> G_4   L_6      
     e( 31 - 32) =      9.77749  eV     2   --> G_4   L_6      
     e( 33 - 34) =     10.07842  eV     2   --> G_5   L_4      
     e( 33 - 34) =     10.07842  eV     2   --> G_6   L_5      
     e( 35 - 36) =     11.02595  eV     2   --> G_4   L_6      

 **************************************************************************

 **************************************************************************

                    xk=(   0.16263,   0.16263,   0.16263  )

     Band symmetry, C_3v (3m)   double point group:

     e(  1 -  2) =    -14.10749  eV     2   --> G_4   L_6      
     e(  3 -  4) =    -13.99679  eV     2   --> G_5   L_4      
     e(  3 -  4) =    -13.99679  eV     2   --> G_6   L_5      
     e(  5 -  6) =    -13.73019  eV     2   --> G_4   L_6      
     e(  7 -  8) =    -13.62313  eV     2   --> G_5   L_4      
     e(  7 -  8) =    -13.62313  eV     2   --> G_6   L_5      
     e(  9 - 10) =    -13.14345  eV     2   --> G_4   L_6      
     e( 11 - 12) =    -12.87447  eV     2   --> G_5   L_4      
     e( 11 - 12) =    -12.87447  eV     2   --> G_6   L_5      
     e( 13 - 14) =    -12.75322  eV     2   --> G_4   L_6      
     e( 15 - 16) =    -12.70604  eV     2   --> G_4   L_6      
     e( 17 - 18) =    -12.56766  eV     2   --> G_5   L_4      
     e( 17 - 18) =    -12.56766  eV     2   --> G_6   L_5      
     e( 19 - 20) =    -12.40689  eV     2   --> G_4   L_6      
     e( 21 - 22) =     -2.73273  eV     2   --> G_4   L_6      
     e( 23 - 24) =      3.15187  eV     2   --> G_4   L_6      
     e( 25 - 26) =      6.17898  eV     2   --> G_4   L_6      
     e( 27 - 28) =      6.59715  eV     2   --> G_5   L_4      
     e( 27 - 28) =      6.59715  eV     2   --> G_6   L_5      
     e( 29 - 30) =      7.15969  eV     2   --> G_4   L_6      
     e( 31 - 32) =      9.74181  eV     2   --> G_4   L_6      
     e( 33 - 34) =     10.04474  eV     2   --> G_5   L_4      
     e( 33 - 34) =     10.04474  eV     2   --> G_6   L_5      
     e( 35 - 36) =     10.89324  eV     2   --> G_4   L_6      

 **************************************************************************

 **************************************************************************

                    xk=(   0.15556,   0.15556,   0.15556  )

     Band symmetry, C_3v (3m)   double point group:

     e(  1 -  2) =    -14.10249  eV     2   --> G_4   L_6      
     e(  3 -  4) =    -13.99557  eV     2   --> G_5   L_4      
     e(  3 -  4) =    -13.99557  eV     2   --> G_6   L_5      
     e(  5 -  6) =    -13.67119  eV     2   --> G_4   L_6      
     e(  7 -  8) =    -13.62414  eV     2   --> G_5   L_4      
     e(  7 -  8) =    -13.62414  eV     2   --> G_6   L_5      
     e(  9 - 10) =    -13.14347  eV     2   --> G_4   L_6      
     e( 11 - 12) =    -12.87180  eV     2   --> G_5   L_4      
     e( 11 - 12) =    -12.87180  eV     2   --> G_6   L_5      
     e( 13 - 14) =    -12.70842  eV     2   --> G_4   L_6      
     e( 15 - 16) =    -12.67844  eV     2   --> G_4   L_6      
     e( 17 - 18) =    -12.57046  eV     2   --> G_5   L_4      
     e( 17 - 18) =    -12.57046  eV     2   --> G_6   L_5      
     e( 19 - 20) =    -12.39067  eV     2   --> G_4   L_6      
     e( 21 - 22) =     -2.77013  eV     2   --> G_4   L_6      
     e( 23 - 24) =      3.28040  eV     2   --> G_4   L_6      
     e( 25 - 26) =      6.21082  eV     2   --> G_4   L_6      
     e( 27 - 28) =      6.63031  eV     2   --> G_5   L_4      
     e( 27 - 28) =      6.63031  eV     2   --> G_6   L_5      
     e( 29 - 30) =      7.18319  eV     2   --> G_4   L_6      
     e( 31 - 32) =      9.70475  eV     2   --> G_4   L_6      
     e( 33 - 34) =     10.00930  eV     2   --> G_5   L_4      
     e( 33 - 34) =     10.00930  eV     2   --> G_6   L_5      
     e( 35 - 36) =     10.76402  eV     2   --> G_4   L_6      

 **************************************************************************

 **************************************************************************

                    xk=(   0.14849,   0.14849,   0.14849  )

     Band symmetry, C_3v (3m)   double point group:

     e(  1 -  2) =    -14.02027  eV     2   --> G_4   L_6      
     e(  3 -  4) =    -13.98732  eV     2   --> G_5   L_4      
     e(  3 -  4) =    -13.98732  eV     2   --> G_6   L_5      
     e(  5 -  6) =    -13.61125  eV     2   --> G_5   L_4      
     e(  5 -  6) =    -13.61125  eV     2   --> G_6   L_5      
     e(  7 -  8) =    -13.58199  eV     2   --> G_4   L_6      
     e(  9 - 10) =    -13.03912  eV     2   --> G_4   L_6      
     e( 11 - 12) =    -12.85766  eV     2   --> G_5   L_4      
     e( 11 - 12) =    -12.85766  eV     2   --> G_6   L_5      
     e( 13 - 14) =    -12.70367  eV     2   --> G_4   L_6      
     e( 15 - 16) =    -12.59311  eV     2   --> G_4   L_6      
     e( 17 - 18) =    -12.53659  eV     2   --> G_5   L_4      
     e( 17 - 18) =    -12.53659  eV     2   --> G_6   L_5      
     e( 19 - 20) =    -12.36096  eV     2   --> G_4   L_6      
     e( 21 - 22) =     -2.80623  eV     2   --> G_4   L_6      
     e( 23 - 24) =      3.41163  eV     2   --> G_4   L_6      
     e( 25 - 26) =      6.24347  eV     2   --> G_4   L_6      
     e( 27 - 28) =      6.66447  eV     2   --> G_5   L_4      
     e( 27 - 28) =      6.66447  eV     2   --> G_6   L_5      
     e( 29 - 30) =      7.20553  eV     2   --> G_4   L_6      
     e( 31 - 32) =      9.66602  eV     2   --> G_4   L_6      
     e( 33 - 34) =      9.97179  eV     2   --> G_5   L_4      
     e( 33 - 34) =      9.97179  eV     2   --> G_6   L_5      
     e( 35 - 36) =     10.64025  eV     2   --> G_4   L_6      

 **************************************************************************

 **************************************************************************

                    xk=(   0.14142,   0.14142,   0.14142  )

     Band symmetry, C_3v (3m)   double point group:

     e(  1 -  2) =    -14.01730  eV     2   --> G_4   L_6      
     e(  3 -  4) =    -13.98567  eV     2   --> G_5   L_4      
     e(  3 -  4) =    -13.98567  eV     2   --> G_6   L_5      
     e(  5 -  6) =    -13.61181  eV     2   --> G_5   L_4      
     e(  5 -  6) =    -13.61181  eV     2   --> G_6   L_5      
     e(  7 -  8) =    -13.58432  eV     2   --> G_4   L_6      
     e(  9 - 10) =    -13.03959  eV     2   --> G_4   L_6      
     e( 11 - 12) =    -12.85440  eV     2   --> G_5   L_4      
     e( 11 - 12) =    -12.85440  eV     2   --> G_6   L_5      
     e( 13 - 14) =    -12.70494  eV     2   --> G_4   L_6      
     e( 15 - 16) =    -12.59088  eV     2   --> G_4   L_6      
     e( 17 - 18) =    -12.53931  eV     2   --> G_5   L_4      
     e( 17 - 18) =    -12.53931  eV     2   --> G_6   L_5      
     e( 19 - 20) =    -12.35996  eV     2   --> G_4   L_6      
     e( 21 - 22) =     -2.84097  eV     2   --> G_4   L_6      
     e( 23 - 24) =      3.54209  eV     2   --> G_4   L_6      
     e( 25 - 26) =      6.27607  eV     2   --> G_4   L_6      
     e( 27 - 28) =      6.69878  eV     2   --> G_5   L_4      
     e( 27 - 28) =      6.69878  eV     2   --> G_6   L_5      
     e( 29 - 30) =      7.22603  eV     2   --> G_4   L_6      
     e( 31 - 32) =      9.62569  eV     2   --> G_4   L_6      
     e( 33 - 34) =      9.93237  eV     2   --> G_5   L_4      
     e( 33 - 34) =      9.93237  eV     2   --> G_6   L_5      
     e( 35 - 36) =     10.51456  eV     2   --> G_4   L_6      

 **************************************************************************

 **************************************************************************

                    xk=(   0.13435,   0.13435,   0.13435  )

     Band symmetry, C_3v (3m)   double point group:

     e(  1 -  2) =    -14.01391  eV     2   --> G_4   L_6      
     e(  3 -  4) =    -13.98374  eV     2   --> G_5   L_4      
     e(  3 -  4) =    -13.98374  eV     2   --> G_6   L_5      
     e(  5 -  6) =    -13.61206  eV     2   --> G_5   L_4      
     e(  5 -  6) =    -13.61206  eV     2   --> G_6   L_5      
     e(  7 -  8) =    -13.58623  eV     2   --> G_4   L_6      
     e(  9 - 10) =    -13.03956  eV     2   --> G_4   L_6      
     e( 11 - 12) =    -12.85080  eV     2   --> G_5   L_4      
     e( 11 - 12) =    -12.85080  eV     2   --> G_6   L_5      
     e( 13 - 14) =    -12.70596  eV     2   --> G_4   L_6      
     e( 15 - 16) =    -12.58828  eV     2   --> G_4   L_6      
     e( 17 - 18) =    -12.54161  eV     2   --> G_5   L_4      
     e( 17 - 18) =    -12.54161  eV     2   --> G_6   L_5      
     e( 19 - 20) =    -12.35866  eV     2   --> G_4   L_6      
     e( 21 - 22) =     -2.87423  eV     2   --> G_4   L_6      
     e( 23 - 24) =      3.67326  eV     2   --> G_4   L_6      
     e( 25 - 26) =      6.30883  eV     2   --> G_4   L_6      
     e( 27 - 28) =      6.73351  eV     2   --> G_5   L_4      
     e( 27 - 28) =      6.73351  eV     2   --> G_6   L_5      
     e( 29 - 30) =      7.24539  eV     2   --> G_4   L_6      
     e( 31 - 32) =      9.58398  eV     2   --> G_4   L_6      
     e( 33 - 34) =      9.89131  eV     2   --> G_5   L_4      
     e( 33 - 34) =      9.89131  eV     2   --> G_6   L_5      
     e( 35 - 36) =     10.39180  eV     2   --> G_4   L_6      

 **************************************************************************

 **************************************************************************

                    xk=(   0.12728,   0.12728,   0.12728  )

     Band symmetry, C_3v (3m)   double point group:

     e(  1 -  2) =    -14.01008  eV     2   --> G_4   L_6      
     e(  3 -  4) =    -13.98152  eV     2   --> G_5   L_4      
     e(  3 -  4) =    -13.98152  eV     2   --> G_6   L_5      
     e(  5 -  6) =    -13.61202  eV     2   --> G_5   L_4      
     e(  5 -  6) =    -13.61202  eV     2   --> G_6   L_5      
     e(  7 -  8) =    -13.58772  eV     2   --> G_4   L_6      
     e(  9 - 10) =    -13.03901  eV     2   --> G_4   L_6      
     e( 11 - 12) =    -12.84686  eV     2   --> G_5   L_4      
     e( 11 - 12) =    -12.84686  eV     2   --> G_6   L_5      
     e( 13 - 14) =    -12.70674  eV     2   --> G_4   L_6      
     e( 15 - 16) =    -12.58532  eV     2   --> G_4   L_6      
     e( 17 - 18) =    -12.54351  eV     2   --> G_5   L_4      
     e( 17 - 18) =    -12.54351  eV     2   --> G_6   L_5      
     e( 19 - 20) =    -12.35705  eV     2   --> G_4   L_6      
     e( 21 - 22) =     -2.90596  eV     2   --> G_4   L_6      
     e( 23 - 24) =      3.80493  eV     2   --> G_4   L_6      
     e( 25 - 26) =      6.34157  eV     2   --> G_4   L_6      
     e( 27 - 28) =      6.76853  eV     2   --> G_5   L_4      
     e( 27 - 28) =      6.76853  eV     2   --> G_6   L_5      
     e( 29 - 30) =      7.26331  eV     2   --> G_4   L_6      
     e( 31 - 32) =      9.54102  eV     2   --> G_4   L_6      
     e( 33 - 34) =      9.84889  eV     2   --> G_5   L_4      
     e( 33 - 34) =      9.84889  eV     2   --> G_6   L_5      
     e( 35 - 36) =     10.27241  eV     2   --> G_4   L_6      

 **************************************************************************

 **************************************************************************

                    xk=(   0.12021,   0.12021,   0.12021  )

     Band symmetry, C_3v (3m)   double point group:

     e(  1 -  2) =    -13.78846  eV     2   --> G_5   L_4      
     e(  1 -  2) =    -13.78846  eV     2   --> G_6   L_5      
     e(  3 -  4) =    -13.63782  eV     2   --> G_4   L_6      
     e(  5 -  6) =    -13.56818  eV     2   --> G_4   L_6      
     e(  7 -  8) =    -13.47512  eV     2   --> G_5   L_4      
     e(  7 -  8) =    -13.47512  eV     2   --> G_6   L_5      
     e(  9 - 10) =    -12.87488  eV     2   --> G_4   L_6      
     e( 11 - 12) =    -12.62396  eV     2   --> G_4   L_6      
     e( 13 - 14) =    -12.57110  eV     2   --> G_5   L_4      
     e( 13 - 14) =    -12.57110  eV     2   --> G_6   L_5      
     e( 15 - 16) =    -12.38743  eV     2   --> G_4   L_6      
     e( 17 - 18) =    -12.24834  eV     2   --> G_5   L_4      
     e( 17 - 18) =    -12.24834  eV     2   --> G_6   L_5      
     e( 19 - 20) =    -12.23945  eV     2   --> G_4   L_6      
     e( 21 - 22) =     -2.93608  eV     2   --> G_4   L_6      
     e( 23 - 24) =      3.93742  eV     2   --> G_4   L_6      
     e( 25 - 26) =      6.37888  eV     2   --> G_4   L_6      
     e( 27 - 28) =      6.80862  eV     2   --> G_5   L_4      
     e( 27 - 28) =      6.80862  eV     2   --> G_6   L_5      
     e( 29 - 30) =      7.27956  eV     2   --> G_4   L_6      
     e( 31 - 32) =      9.49770  eV     2   --> G_4   L_6      
     e( 33 - 34) =      9.80632  eV     2   --> G_5   L_4      
     e( 33 - 34) =      9.80632  eV     2   --> G_6   L_5      
     e( 35 - 36) =     10.15718  eV     2   --> G_4   L_6      

 **************************************************************************

 **************************************************************************

                    xk=(   0.11314,   0.11314,   0.11314  )

     Band symmetry, C_3v (3m)   double point group:

     e(  1 -  2) =    -13.78861  eV     2   --> G_5   L_4      
     e(  1 -  2) =    -13.78861  eV     2   --> G_6   L_5      
     e(  3 -  4) =    -13.63689  eV     2   --> G_4   L_6      
     e(  5 -  6) =    -13.56814  eV     2   --> G_4   L_6      
     e(  7 -  8) =    -13.47531  eV     2   --> G_5   L_4      
     e(  7 -  8) =    -13.47531  eV     2   --> G_6   L_5      
     e(  9 - 10) =    -12.87392  eV     2   --> G_4   L_6      
     e( 11 - 12) =    -12.62342  eV     2   --> G_4   L_6      
     e( 13 - 14) =    -12.57133  eV     2   --> G_5   L_4      
     e( 13 - 14) =    -12.57133  eV     2   --> G_6   L_5      
     e( 15 - 16) =    -12.38653  eV     2   --> G_4   L_6      
     e( 17 - 18) =    -12.24886  eV     2   --> G_5   L_4      
     e( 17 - 18) =    -12.24886  eV     2   --> G_6   L_5      
     e( 19 - 20) =    -12.23886  eV     2   --> G_4   L_6      
     e( 21 - 22) =     -2.96465  eV     2   --> G_4   L_6      
     e( 23 - 24) =      4.06943  eV     2   --> G_4   L_6      
     e( 25 - 26) =      6.41104  eV     2   --> G_4   L_6      
     e( 27 - 28) =      6.84392  eV     2   --> G_5   L_4      
     e( 27 - 28) =      6.84392  eV     2   --> G_6   L_5      
     e( 29 - 30) =      7.29363  eV     2   --> G_4   L_6      
     e( 31 - 32) =      9.45249  eV     2   --> G_4   L_6      
     e( 33 - 34) =      9.76209  eV     2   --> G_5   L_4      
     e( 33 - 34) =      9.76209  eV     2   --> G_6   L_5      
     e( 35 - 36) =     10.04618  eV     2   --> G_4   L_6      

 **************************************************************************

 **************************************************************************

                    xk=(   0.10607,   0.10607,   0.10607  )

     Band symmetry, C_3v (3m)   double point group:

     e(  1 -  2) =    -13.78848  eV     2   --> G_5   L_4      
     e(  1 -  2) =    -13.78848  eV     2   --> G_6   L_5      
     e(  3 -  4) =    -13.63553  eV     2   --> G_4   L_6      
     e(  5 -  6) =    -13.56759  eV     2   --> G_4   L_6      
     e(  7 -  8) =    -13.47518  eV     2   --> G_5   L_4      
     e(  7 -  8) =    -13.47518  eV     2   --> G_6   L_5      
     e(  9 - 10) =    -12.87254  eV     2   --> G_4   L_6      
     e( 11 - 12) =    -12.62263  eV     2   --> G_4   L_6      
     e( 13 - 14) =    -12.57112  eV     2   --> G_5   L_4      
     e( 13 - 14) =    -12.57112  eV     2   --> G_6   L_5      
     e( 15 - 16) =    -12.38524  eV     2   --> G_4   L_6      
     e( 17 - 18) =    -12.24903  eV     2   --> G_5   L_4      
     e( 17 - 18) =    -12.24903  eV     2   --> G_6   L_5      
     e( 19 - 20) =    -12.23794  eV     2   --> G_4   L_6      
     e( 21 - 22) =     -2.99161  eV     2   --> G_4   L_6      
     e( 23 - 24) =      4.20121  eV     2   --> G_4   L_6      
     e( 25 - 26) =      6.44247  eV     2   --> G_4   L_6      
     e( 27 - 28) =      6.87906  eV     2   --> G_5   L_4      
     e( 27 - 28) =      6.87906  eV     2   --> G_6   L_5      
     e( 29 - 30) =      7.30522  eV     2   --> G_4   L_6      
     e( 31 - 32) =      9.40618  eV     2   --> G_4   L_6      
     e( 33 - 34) =      9.71748  eV     2   --> G_5   L_4      
     e( 33 - 34) =      9.71748  eV     2   --> G_6   L_5      
     e( 35 - 36) =      9.94045  eV     2   --> G_4   L_6      

 **************************************************************************

 **************************************************************************

                    xk=(   0.09899,   0.09899,   0.09899  )

     Band symmetry, C_3v (3m)   double point group:

     e(  1 -  2) =    -13.78807  eV     2   --> G_5   L_4      
     e(  1 -  2) =    -13.78807  eV     2   --> G_6   L_5      
     e(  3 -  4) =    -13.63374  eV     2   --> G_4   L_6      
     e(  5 -  6) =    -13.56654  eV     2   --> G_4   L_6      
     e(  7 -  8) =    -13.47472  eV     2   --> G_5   L_4      
     e(  7 -  8) =    -13.47472  eV     2   --> G_6   L_5      
     e(  9 - 10) =    -12.87075  eV     2   --> G_4   L_6      
     e( 11 - 12) =    -12.62158  eV     2   --> G_4   L_6      
     e( 13 - 14) =    -12.57048  eV     2   --> G_5   L_4      
     e( 13 - 14) =    -12.57048  eV     2   --> G_6   L_5      
     e( 15 - 16) =    -12.38355  eV     2   --> G_4   L_6      
     e( 17 - 18) =    -12.24887  eV     2   --> G_5   L_4      
     e( 17 - 18) =    -12.24887  eV     2   --> G_6   L_5      
     e( 19 - 20) =    -12.23671  eV     2   --> G_4   L_6      
     e( 21 - 22) =     -3.01692  eV     2   --> G_4   L_6      
     e( 23 - 24) =      4.33245  eV     2   --> G_4   L_6      
     e( 25 - 26) =      6.47287  eV     2   --> G_4   L_6      
     e( 27 - 28) =      6.91386  eV     2   --> G_5   L_4      
     e( 27 - 28) =      6.91386  eV     2   --> G_6   L_5      
     e( 29 - 30) =      7.31399  eV     2   --> G_4   L_6      
     e( 31 - 32) =      9.35865  eV     2   --> G_4   L_6      
     e( 33 - 34) =      9.67288  eV     2   --> G_5   L_4      
     e( 33 - 34) =      9.67288  eV     2   --> G_6   L_5      
     e( 35 - 36) =      9.84090  eV     2   --> G_4   L_6      

 **************************************************************************

 **************************************************************************

                    xk=(   0.09192,   0.09192,   0.09192  )

     Band symmetry, C_3v (3m)   double point group:

     e(  1 -  2) =    -13.81465  eV     2   --> G_5   L_4      
     e(  1 -  2) =    -13.81465  eV     2   --> G_6   L_5      
     e(  3 -  4) =    -13.70977  eV     2   --> G_5   L_4      
     e(  3 -  4) =    -13.70977  eV     2   --> G_6   L_5      
     e(  5 -  6) =    -13.67792  eV     2   --> G_4   L_6      
     e(  7 -  8) =    -13.63941  eV     2   --> G_4   L_6      
     e(  9 - 10) =    -12.90553  eV     2   --> G_4   L_6      
     e( 11 - 12) =    -12.78018  eV     2   --> G_4   L_6      
     e( 13 - 14) =    -12.62390  eV     2   --> G_5   L_4      
     e( 13 - 14) =    -12.62390  eV     2   --> G_6   L_5      
     e( 15 - 16) =    -12.48483  eV     2   --> G_4   L_6      
     e( 17 - 18) =    -12.36081  eV     2   --> G_4   L_6      
     e( 19 - 20) =    -12.30581  eV     2   --> G_5   L_4      
     e( 19 - 20) =    -12.30581  eV     2   --> G_6   L_5      
     e( 21 - 22) =     -3.04057  eV     2   --> G_4   L_6      
     e( 23 - 24) =      4.46239  eV     2   --> G_4   L_6      
     e( 25 - 26) =      6.49960  eV     2   --> G_4   L_6      
     e( 27 - 28) =      6.94578  eV     2   --> G_5   L_4      
     e( 27 - 28) =      6.94578  eV     2   --> G_6   L_5      
     e( 29 - 30) =      7.31946  eV     2   --> G_4   L_6      
     e( 31 - 32) =      9.30750  eV     2   --> G_4   L_6      
     e( 33 - 34) =      9.62644  eV     2   --> G_5   L_4      
     e( 33 - 34) =      9.62644  eV     2   --> G_6   L_5      
     e( 35 - 36) =      9.74521  eV     2   --> G_4   L_6      

 **************************************************************************

 **************************************************************************

                    xk=(   0.08485,   0.08485,   0.08485  )

     Band symmetry, C_3v (3m)   double point group:

     e(  1 -  2) =    -13.81134  eV     2   --> G_5   L_4      
     e(  1 -  2) =    -13.81134  eV     2   --> G_6   L_5      
     e(  3 -  4) =    -13.66968  eV     2   --> G_5   L_4      
     e(  3 -  4) =    -13.66968  eV     2   --> G_6   L_5      
     e(  5 -  6) =    -13.64802  eV     2   --> G_4   L_6      
     e(  7 -  8) =    -13.51039  eV     2   --> G_4   L_6      
     e(  9 - 10) =    -12.84779  eV     2   --> G_4   L_6      
     e( 11 - 12) =    -12.75433  eV     2   --> G_4   L_6      
     e( 13 - 14) =    -12.62270  eV     2   --> G_5   L_4      
     e( 13 - 14) =    -12.62270  eV     2   --> G_6   L_5      
     e( 15 - 16) =    -12.47830  eV     2   --> G_4   L_6      
     e( 17 - 18) =    -12.29246  eV     2   --> G_4   L_6      
     e( 19 - 20) =    -12.19516  eV     2   --> G_5   L_4      
     e( 19 - 20) =    -12.19516  eV     2   --> G_6   L_5      
     e( 21 - 22) =     -3.06252  eV     2   --> G_4   L_6      
     e( 23 - 24) =      4.59252  eV     2   --> G_4   L_6      
     e( 25 - 26) =      6.52805  eV     2   --> G_4   L_6      
     e( 27 - 28) =      6.98064  eV     2   --> G_5   L_4      
     e( 27 - 28) =      6.98064  eV     2   --> G_6   L_5      
     e( 29 - 30) =      7.32293  eV     2   --> G_4   L_6      
     e( 31 - 32) =      9.25725  eV     2   --> G_4   L_6      
     e( 33 - 34) =      9.58322  eV     2   --> G_5   L_4      
     e( 33 - 34) =      9.58322  eV     2   --> G_6   L_5      
     e( 35 - 36) =      9.66150  eV     2   --> G_4   L_6      

 **************************************************************************

 **************************************************************************

                    xk=(   0.07778,   0.07778,   0.07778  )

     Band symmetry, C_3v (3m)   double point group:

     e(  1 -  2) =    -13.80987  eV     2   --> G_5   L_4      
     e(  1 -  2) =    -13.80987  eV     2   --> G_6   L_5      
     e(  3 -  4) =    -13.67013  eV     2   --> G_5   L_4      
     e(  3 -  4) =    -13.67013  eV     2   --> G_6   L_5      
     e(  5 -  6) =    -13.64625  eV     2   --> G_4   L_6      
     e(  7 -  8) =    -13.51220  eV     2   --> G_4   L_6      
     e(  9 - 10) =    -12.84615  eV     2   --> G_4   L_6      
     e( 11 - 12) =    -12.75479  eV     2   --> G_4   L_6      
     e( 13 - 14) =    -12.62114  eV     2   --> G_5   L_4      
     e( 13 - 14) =    -12.62114  eV     2   --> G_6   L_5      
     e( 15 - 16) =    -12.47559  eV     2   --> G_4   L_6      
     e( 17 - 18) =    -12.29447  eV     2   --> G_4   L_6      
     e( 19 - 20) =    -12.19661  eV     2   --> G_5   L_4      
     e( 19 - 20) =    -12.19661  eV     2   --> G_6   L_5      
     e( 21 - 22) =     -3.08278  eV     2   --> G_4   L_6      
     e( 23 - 24) =      4.71967  eV     2   --> G_4   L_6      
     e( 25 - 26) =      6.55281  eV     2   --> G_4   L_6      
     e( 27 - 28) =      7.01311  eV     2   --> G_5   L_4      
     e( 27 - 28) =      7.01311  eV     2   --> G_6   L_5      
     e( 29 - 30) =      7.32170  eV     2   --> G_4   L_6      
     e( 31 - 32) =      9.20515  eV     2   --> G_4   L_6      
     e( 33 - 34) =      9.54100  eV     2   --> G_5   L_4      
     e( 33 - 34) =      9.54100  eV     2   --> G_6   L_5      
     e( 35 - 36) =      9.58643  eV     2   --> G_4   L_6      

 **************************************************************************

 **************************************************************************

                    xk=(   0.07071,   0.07071,   0.07071  )

     Band symmetry, C_3v (3m)   double point group:

     e(  1 -  2) =    -13.80811  eV     2   --> G_5   L_4      
     e(  1 -  2) =    -13.80811  eV     2   --> G_6   L_5      
     e(  3 -  4) =    -13.67026  eV     2   --> G_5   L_4      
     e(  3 -  4) =    -13.67026  eV     2   --> G_6   L_5      
     e(  5 -  6) =    -13.64405  eV     2   --> G_4   L_6      
     e(  7 -  8) =    -13.51346  eV     2   --> G_4   L_6      
     e(  9 - 10) =    -12.84422  eV     2   --> G_4   L_6      
     e( 11 - 12) =    -12.75489  eV     2   --> G_4   L_6      
     e( 13 - 14) =    -12.61912  eV     2   --> G_5   L_4      
     e( 13 - 14) =    -12.61912  eV     2   --> G_6   L_5      
     e( 15 - 16) =    -12.47253  eV     2   --> G_4   L_6      
     e( 17 - 18) =    -12.29611  eV     2   --> G_4   L_6      
     e( 19 - 20) =    -12.19770  eV     2   --> G_5   L_4      
     e( 19 - 20) =    -12.19770  eV     2   --> G_6   L_5      
     e( 21 - 22) =     -3.10133  eV     2   --> G_4   L_6      
     e( 23 - 24) =      4.84445  eV     2   --> G_4   L_6      
     e( 25 - 26) =      6.57462  eV     2   --> G_4   L_6      
     e( 27 - 28) =      7.04429  eV     2   --> G_5   L_4      
     e( 27 - 28) =      7.04429  eV     2   --> G_6   L_5      
     e( 29 - 30) =      7.31692  eV     2   --> G_4   L_6      
     e( 31 - 32) =      9.15175  eV     2   --> G_4   L_6      
     e( 33 - 34) =      9.50040  eV     2   --> G_5   L_4      
     e( 33 - 34) =      9.50040  eV     2   --> G_6   L_5      
     e( 35 - 36) =      9.52111  eV     2   --> G_4   L_6      

 **************************************************************************

 **************************************************************************

                    xk=(   0.06364,   0.06364,   0.06364  )

     Band symmetry, C_3v (3m)   double point group:

     e(  1 -  2) =    -13.80606  eV     2   --> G_5   L_4      
     e(  1 -  2) =    -13.80606  eV     2   --> G_6   L_5      
     e(  3 -  4) =    -13.67009  eV     2   --> G_5   L_4      
     e(  3 -  4) =    -13.67009  eV     2   --> G_6   L_5      
     e(  5 -  6) =    -13.64142  eV     2   --> G_4   L_6      
     e(  7 -  8) =    -13.51417  eV     2   --> G_4   L_6      
     e(  9 - 10) =    -12.84199  eV     2   --> G_4   L_6      
     e( 11 - 12) =    -12.75463  eV     2   --> G_4   L_6      
     e( 13 - 14) =    -12.61665  eV     2   --> G_5   L_4      
     e( 13 - 14) =    -12.61665  eV     2   --> G_6   L_5      
     e( 15 - 16) =    -12.46914  eV     2   --> G_4   L_6      
     e( 17 - 18) =    -12.29738  eV     2   --> G_4   L_6      
     e( 19 - 20) =    -12.19844  eV     2   --> G_5   L_4      
     e( 19 - 20) =    -12.19844  eV     2   --> G_6   L_5      
     e( 21 - 22) =     -3.11814  eV     2   --> G_4   L_6      
     e( 23 - 24) =      4.96617  eV     2   --> G_4   L_6      
     e( 25 - 26) =      6.59281  eV     2   --> G_4   L_6      
     e( 27 - 28) =      7.07389  eV     2   --> G_5   L_4      
     e( 27 - 28) =      7.07389  eV     2   --> G_6   L_5      
     e( 29 - 30) =      7.30881  eV     2   --> G_4   L_6      
     e( 31 - 32) =      9.09790  eV     2   --> G_4   L_6      
     e( 33 - 34) =      9.46186  eV     2   --> G_5   L_4      
     e( 33 - 34) =      9.46186  eV     2   --> G_6   L_5      
     e( 35 - 36) =      9.46553  eV     2   --> G_4   L_6      

 **************************************************************************

 **************************************************************************

                    xk=(   0.05657,   0.05657,   0.05657  )

     Band symmetry, C_3v (3m)   double point group:

     e(  1 -  2) =    -13.80372  eV     2   --> G_5   L_4      
     e(  1 -  2) =    -13.80372  eV     2   --> G_6   L_5      
     e(  3 -  4) =    -13.66960  eV     2   --> G_5   L_4      
     e(  3 -  4) =    -13.66960  eV     2   --> G_6   L_5      
     e(  5 -  6) =    -13.63838  eV     2   --> G_4   L_6      
     e(  7 -  8) =    -13.51434  eV     2   --> G_4   L_6      
     e(  9 - 10) =    -12.83948  eV     2   --> G_4   L_6      
     e( 11 - 12) =    -12.75401  eV     2   --> G_4   L_6      
     e( 13 - 14) =    -12.61373  eV     2   --> G_5   L_4      
     e( 13 - 14) =    -12.61373  eV     2   --> G_6   L_5      
     e( 15 - 16) =    -12.46540  eV     2   --> G_4   L_6      
     e( 17 - 18) =    -12.29826  eV     2   --> G_4   L_6      
     e( 19 - 20) =    -12.19882  eV     2   --> G_5   L_4      
     e( 19 - 20) =    -12.19882  eV     2   --> G_6   L_5      
     e( 21 - 22) =     -3.13322  eV     2   --> G_4   L_6      
     e( 23 - 24) =      5.08396  eV     2   --> G_4   L_6      
     e( 25 - 26) =      6.60670  eV     2   --> G_4   L_6      
     e( 27 - 28) =      7.10162  eV     2   --> G_5   L_4      
     e( 27 - 28) =      7.10162  eV     2   --> G_6   L_5      
     e( 29 - 30) =      7.29784  eV     2   --> G_4   L_6      
     e( 31 - 32) =      9.04491  eV     2   --> G_4   L_6      
     e( 33 - 34) =      9.41914  eV     2   --> G_4   L_6      
     e( 35 - 36) =      9.42580  eV     2   --> G_5   L_4      
     e( 35 - 36) =      9.42580  eV     2   --> G_6   L_5      

 **************************************************************************

 **************************************************************************

                    xk=(   0.04950,   0.04950,   0.04950  )

     Band symmetry, C_3v (3m)   double point group:

     e(  1 -  2) =    -13.80110  eV     2   --> G_5   L_4      
     e(  1 -  2) =    -13.80110  eV     2   --> G_6   L_5      
     e(  3 -  4) =    -13.66881  eV     2   --> G_5   L_4      
     e(  3 -  4) =    -13.66881  eV     2   --> G_6   L_5      
     e(  5 -  6) =    -13.63491  eV     2   --> G_4   L_6      
     e(  7 -  8) =    -13.51395  eV     2   --> G_4   L_6      
     e(  9 - 10) =    -12.83667  eV     2   --> G_4   L_6      
     e( 11 - 12) =    -12.75303  eV     2   --> G_4   L_6      
[...]
     e( 11 - 12) =    -12.79680  eV     2   --> G_7   D_7      
     e( 13 - 14) =    -12.78310  eV     2   --> G_6   D_6      
     e( 15 - 16) =    -12.68327  eV     2   --> G_6   D_6      
     e( 17 - 18) =    -12.35715  eV     2   --> G_7   D_7      
     e( 19 - 20) =    -12.21873  eV     2   --> G_6   D_6      
     e( 21 - 22) =     -1.68167  eV     2   --> G_6   D_6      
     e( 23 - 24) =      1.27479  eV     2   --> G_7   D_7      
     e( 25 - 26) =      4.92697  eV     2   --> G_7   D_7      
     e( 27 - 28) =      4.98422  eV     2   --> G_6   D_6      
     e( 29 - 30) =      7.78271  eV     2   --> G_6   D_6      
     e( 31 - 32) =      8.51964  eV     2   --> G_7   D_7      
     e( 33 - 34) =     12.88194  eV     2   --> G_7   D_7      
     e( 35 - 36) =     13.00573  eV     2   --> G_6   D_6      

 **************************************************************************

 **************************************************************************

                    xk=(   0.00000,   0.52326,   0.00000  )

     Band symmetry, C_4v (4mm)  double point group:

     e(  1 -  2) =    -14.14897  eV     2   --> G_6   D_6      
     e(  3 -  4) =    -14.01296  eV     2   --> G_7   D_7      
     e(  5 -  6) =    -13.72985  eV     2   --> G_7   D_7      
     e(  7 -  8) =    -13.58771  eV     2   --> G_6   D_6      
     e(  9 - 10) =    -12.86811  eV     2   --> G_7   D_7      
     e( 11 - 12) =    -12.79430  eV     2   --> G_7   D_7      
     e( 13 - 14) =    -12.78105  eV     2   --> G_6   D_6      
     e( 15 - 16) =    -12.68417  eV     2   --> G_6   D_6      
     e( 17 - 18) =    -12.35815  eV     2   --> G_7   D_7      
     e( 19 - 20) =    -12.21992  eV     2   --> G_6   D_6      
     e( 21 - 22) =     -1.59912  eV     2   --> G_6   D_6      
     e( 23 - 24) =      1.15019  eV     2   --> G_7   D_7      
     e( 25 - 26) =      4.89480  eV     2   --> G_7   D_7      
     e( 27 - 28) =      4.94749  eV     2   --> G_6   D_6      
     e( 29 - 30) =      7.77383  eV     2   --> G_6   D_6      
     e( 31 - 32) =      8.46704  eV     2   --> G_7   D_7      
     e( 33 - 34) =     13.00405  eV     2   --> G_7   D_7      
     e( 35 - 36) =     13.13151  eV     2   --> G_6   D_6      

 **************************************************************************

 **************************************************************************

                    xk=(   0.00000,   0.53740,   0.00000  )

     Band symmetry, C_4v (4mm)  double point group:

     e(  1 -  2) =    -14.14615  eV     2   --> G_6   D_6      
     e(  3 -  4) =    -14.01072  eV     2   --> G_7   D_7      
     e(  5 -  6) =    -13.72818  eV     2   --> G_7   D_7      
     e(  7 -  8) =    -13.58605  eV     2   --> G_6   D_6      
     e(  9 - 10) =    -12.86849  eV     2   --> G_7   D_7      
     e( 11 - 12) =    -12.79128  eV     2   --> G_7   D_7      
     e( 13 - 14) =    -12.77855  eV     2   --> G_6   D_6      
     e( 15 - 16) =    -12.68460  eV     2   --> G_6   D_6      
     e( 17 - 18) =    -12.35879  eV     2   --> G_7   D_7      
     e( 19 - 20) =    -12.22081  eV     2   --> G_6   D_6      
     e( 21 - 22) =     -1.51458  eV     2   --> G_6   D_6      
     e( 23 - 24) =      1.02666  eV     2   --> G_7   D_7      
     e( 25 - 26) =      4.86504  eV     2   --> G_7   D_7      
     e( 27 - 28) =      4.91328  eV     2   --> G_6   D_6      
     e( 29 - 30) =      7.76773  eV     2   --> G_6   D_6      
     e( 31 - 32) =      8.41476  eV     2   --> G_7   D_7      
     e( 33 - 34) =     13.12449  eV     2   --> G_7   D_7      
     e( 35 - 36) =     13.25438  eV     2   --> G_6   D_6      

 **************************************************************************

 **************************************************************************

                    xk=(   0.00000,   0.55154,   0.00000  )

     Band symmetry, C_4v (4mm)  double point group:

     e(  1 -  2) =    -14.24989  eV     2   --> G_6   D_6      
     e(  3 -  4) =    -14.10753  eV     2   --> G_7   D_7      
     e(  5 -  6) =    -13.86971  eV     2   --> G_7   D_7      
     e(  7 -  8) =    -13.76434  eV     2   --> G_6   D_6      
     e(  9 - 10) =    -13.06606  eV     2   --> G_7   D_7      
     e( 11 - 12) =    -12.96935  eV     2   --> G_6   D_6      
     e( 13 - 14) =    -12.89456  eV     2   --> G_7   D_7      
     e( 15 - 16) =    -12.78289  eV     2   --> G_6   D_6      
     e( 17 - 18) =    -12.43157  eV     2   --> G_7   D_7      
     e( 19 - 20) =    -12.25618  eV     2   --> G_6   D_6      
     e( 21 - 22) =     -1.42810  eV     2   --> G_6   D_6      
     e( 23 - 24) =      0.90424  eV     2   --> G_7   D_7      
     e( 25 - 26) =      4.83717  eV     2   --> G_7   D_7      
     e( 27 - 28) =      4.88104  eV     2   --> G_6   D_6      
     e( 29 - 30) =      7.76357  eV     2   --> G_6   D_6      
     e( 31 - 32) =      8.36251  eV     2   --> G_7   D_7      
     e( 33 - 34) =     13.24025  eV     2   --> G_7   D_7      
     e( 35 - 36) =     13.37107  eV     2   --> G_6   D_6      

 **************************************************************************

 **************************************************************************

                    xk=(   0.00000,   0.56569,   0.00000  )

     Band symmetry, C_4v (4mm)  double point group:

     e(  1 -  2) =    -14.24583  eV     2   --> G_6   D_6      
     e(  3 -  4) =    -14.10446  eV     2   --> G_7   D_7      
     e(  5 -  6) =    -13.86881  eV     2   --> G_7   D_7      
     e(  7 -  8) =    -13.76270  eV     2   --> G_6   D_6      
     e(  9 - 10) =    -13.06804  eV     2   --> G_7   D_7      
     e( 11 - 12) =    -12.96745  eV     2   --> G_6   D_6      
     e( 13 - 14) =    -12.89108  eV     2   --> G_7   D_7      
     e( 15 - 16) =    -12.78337  eV     2   --> G_6   D_6      
     e( 17 - 18) =    -12.43047  eV     2   --> G_7   D_7      
     e( 19 - 20) =    -12.25729  eV     2   --> G_6   D_6      
     e( 21 - 22) =     -1.33969  eV     2   --> G_6   D_6      
     e( 23 - 24) =      0.78297  eV     2   --> G_7   D_7      
     e( 25 - 26) =      4.81235  eV     2   --> G_7   D_7      
     e( 27 - 28) =      4.85196  eV     2   --> G_6   D_6      
     e( 29 - 30) =      7.76305  eV     2   --> G_6   D_6      
     e( 31 - 32) =      8.31196  eV     2   --> G_7   D_7      
     e( 33 - 34) =     13.35573  eV     2   --> G_7   D_7      
     e( 35 - 36) =     13.48603  eV     2   --> G_6   D_6      

 **************************************************************************

 **************************************************************************

                    xk=(   0.00000,   0.57983,   0.00000  )

     Band symmetry, C_4v (4mm)  double point group:

     e(  1 -  2) =    -14.24111  eV     2   --> G_6   D_6      
     e(  3 -  4) =    -14.10074  eV     2   --> G_7   D_7      
     e(  5 -  6) =    -13.86753  eV     2   --> G_7   D_7      
     e(  7 -  8) =    -13.76069  eV     2   --> G_6   D_6      
     e(  9 - 10) =    -13.06964  eV     2   --> G_7   D_7      
     e( 11 - 12) =    -12.96514  eV     2   --> G_6   D_6      
     e( 13 - 14) =    -12.88709  eV     2   --> G_7   D_7      
     e( 15 - 16) =    -12.78334  eV     2   --> G_6   D_6      
     e( 17 - 18) =    -12.42897  eV     2   --> G_7   D_7      
     e( 19 - 20) =    -12.25812  eV     2   --> G_6   D_6      
     e( 21 - 22) =     -1.24937  eV     2   --> G_6   D_6      
     e( 23 - 24) =      0.66291  eV     2   --> G_7   D_7      
     e( 25 - 26) =      4.79001  eV     2   --> G_7   D_7      
     e( 27 - 28) =      4.82544  eV     2   --> G_6   D_6      
     e( 29 - 30) =      7.76534  eV     2   --> G_6   D_6      
     e( 31 - 32) =      8.26275  eV     2   --> G_7   D_7      
     e( 33 - 34) =     13.46765  eV     2   --> G_7   D_7      
     e( 35 - 36) =     13.59566  eV     2   --> G_6   D_6      

 **************************************************************************

 **************************************************************************

                    xk=(   0.00000,   0.59397,   0.00000  )

     Band symmetry, C_4v (4mm)  double point group:

     e(  1 -  2) =    -14.23571  eV     2   --> G_6   D_6      
     e(  3 -  4) =    -14.09638  eV     2   --> G_7   D_7      
     e(  5 -  6) =    -13.86589  eV     2   --> G_7   D_7      
     e(  7 -  8) =    -13.75831  eV     2   --> G_6   D_6      
     e(  9 - 10) =    -13.07086  eV     2   --> G_7   D_7      
     e( 11 - 12) =    -12.96240  eV     2   --> G_6   D_6      
     e( 13 - 14) =    -12.88260  eV     2   --> G_7   D_7      
     e( 15 - 16) =    -12.78281  eV     2   --> G_6   D_6      
     e( 17 - 18) =    -12.42708  eV     2   --> G_7   D_7      
     e( 19 - 20) =    -12.25867  eV     2   --> G_6   D_6      
     e( 21 - 22) =     -1.15719  eV     2   --> G_6   D_6      
     e( 23 - 24) =      0.54407  eV     2   --> G_7   D_7      
     e( 25 - 26) =      4.77017  eV     2   --> G_7   D_7      
     e( 27 - 28) =      4.80149  eV     2   --> G_6   D_6      
     e( 29 - 30) =      7.77045  eV     2   --> G_6   D_6      
     e( 31 - 32) =      8.21513  eV     2   --> G_7   D_7      
     e( 33 - 34) =     13.57509  eV     2   --> G_7   D_7      
     e( 35 - 36) =     13.69880  eV     2   --> G_6   D_6      

 **************************************************************************

 **************************************************************************

                    xk=(   0.00000,   0.60811,   0.00000  )

     Band symmetry, C_4v (4mm)  double point group:

     e(  1 -  2) =    -14.23931  eV     2   --> G_6   D_6      
     e(  3 -  4) =    -14.22463  eV     2   --> G_7   D_7      
     e(  5 -  6) =    -13.93148  eV     2   --> G_7   D_7      
     e(  7 -  8) =    -13.79924  eV     2   --> G_6   D_6      
     e(  9 - 10) =    -13.13107  eV     2   --> G_7   D_7      
     e( 11 - 12) =    -13.03494  eV     2   --> G_7   D_7      
     e( 13 - 14) =    -13.01762  eV     2   --> G_6   D_6      
     e( 15 - 16) =    -12.80116  eV     2   --> G_6   D_6      
     e( 17 - 18) =    -12.48414  eV     2   --> G_7   D_7      
     e( 19 - 20) =    -12.26113  eV     2   --> G_6   D_6      
     e( 21 - 22) =     -1.06316  eV     2   --> G_6   D_6      
     e( 23 - 24) =      0.42639  eV     2   --> G_7   D_7      
     e( 25 - 26) =      4.75282  eV     2   --> G_7   D_7      
     e( 27 - 28) =      4.78011  eV     2   --> G_6   D_6      
     e( 29 - 30) =      7.77838  eV     2   --> G_6   D_6      
     e( 31 - 32) =      8.16350  eV     2   --> G_7   D_7      
     e( 33 - 34) =     13.67481  eV     2   --> G_7   D_7      
     e( 35 - 36) =     13.79195  eV     2   --> G_6   D_6      

 **************************************************************************

 **************************************************************************

                    xk=(   0.00000,   0.62225,   0.00000  )

     Band symmetry, C_4v (4mm)  double point group:

     e(  1 -  2) =    -14.23277  eV     2   --> G_6   D_6      
     e(  3 -  4) =    -14.22078  eV     2   --> G_7   D_7      
     e(  5 -  6) =    -13.92925  eV     2   --> G_7   D_7      
     e(  7 -  8) =    -13.79700  eV     2   --> G_6   D_6      
     e(  9 - 10) =    -13.13114  eV     2   --> G_7   D_7      
     e( 11 - 12) =    -13.03220  eV     2   --> G_7   D_7      
     e( 13 - 14) =    -13.01502  eV     2   --> G_6   D_6      
     e( 15 - 16) =    -12.79988  eV     2   --> G_6   D_6      
     e( 17 - 18) =    -12.48341  eV     2   --> G_7   D_7      
     e( 19 - 20) =    -12.26113  eV     2   --> G_6   D_6      
     e( 21 - 22) =     -0.96732  eV     2   --> G_6   D_6      
     e( 23 - 24) =      0.31015  eV     2   --> G_7   D_7      
     e( 25 - 26) =      4.73802  eV     2   --> G_7   D_7      
     e( 27 - 28) =      4.76132  eV     2   --> G_6   D_6      
     e( 29 - 30) =      7.78914  eV     2   --> G_6   D_6      
     e( 31 - 32) =      8.11966  eV     2   --> G_7   D_7      
     e( 33 - 34) =     13.76993  eV     2   --> G_7   D_7      
     e( 35 - 36) =     13.87805  eV     2   --> G_6   D_6      

 **************************************************************************

 **************************************************************************

                    xk=(   0.00000,   0.63640,   0.00000  )

     Band symmetry, C_4v (4mm)  double point group:

     e(  1 -  2) =    -14.48558  eV     2   --> G_6   D_6      
     e(  3 -  4) =    -14.45277  eV     2   --> G_7   D_7      
     e(  5 -  6) =    -13.97252  eV     2   --> G_7   D_7      
     e(  7 -  8) =    -13.83584  eV     2   --> G_6   D_6      
     e(  9 - 10) =    -13.14119  eV     2   --> G_7   D_7      
     e( 11 - 12) =    -13.06197  eV     2   --> G_6   D_6      
     e( 13 - 14) =    -13.04016  eV     2   --> G_7   D_7      
     e( 15 - 16) =    -12.78863  eV     2   --> G_6   D_6      
     e( 17 - 18) =    -12.45177  eV     2   --> G_7   D_7      
     e( 19 - 20) =    -12.17843  eV     2   --> G_6   D_6      
     e( 21 - 22) =     -0.86982  eV     2   --> G_6   D_6      
     e( 23 - 24) =      0.19514  eV     2   --> G_7   D_7      
     e( 25 - 26) =      4.72497  eV     2   --> G_7   D_7      
     e( 27 - 28) =      4.74435  eV     2   --> G_6   D_6      
     e( 29 - 30) =      7.80236  eV     2   --> G_6   D_6      
     e( 31 - 32) =      8.07710  eV     2   --> G_7   D_7      
     e( 33 - 34) =     13.85511  eV     2   --> G_7   D_7      
     e( 35 - 36) =     13.95161  eV     2   --> G_6   D_6      

 **************************************************************************

 **************************************************************************

                    xk=(   0.00000,   0.65054,   0.00000  )

     Band symmetry, C_4v (4mm)  double point group:

     e(  1 -  2) =    -14.48263  eV     2   --> G_6   D_6      
     e(  3 -  4) =    -14.45228  eV     2   --> G_7   D_7      
     e(  5 -  6) =    -13.97166  eV     2   --> G_7   D_7      
     e(  7 -  8) =    -13.83405  eV     2   --> G_6   D_6      
     e(  9 - 10) =    -13.14382  eV     2   --> G_7   D_7      
     e( 11 - 12) =    -13.05951  eV     2   --> G_6   D_6      
     e( 13 - 14) =    -13.03774  eV     2   --> G_7   D_7      
     e( 15 - 16) =    -12.78951  eV     2   --> G_6   D_6      
     e( 17 - 18) =    -12.45070  eV     2   --> G_7   D_7      
     e( 19 - 20) =    -12.17936  eV     2   --> G_6   D_6      
     e( 21 - 22) =     -0.77045  eV     2   --> G_6   D_6      
     e( 23 - 24) =      0.08164  eV     2   --> G_7   D_7      
     e( 25 - 26) =      4.71527  eV     2   --> G_7   D_7      
     e( 27 - 28) =      4.73074  eV     2   --> G_6   D_6      
     e( 29 - 30) =      7.81867  eV     2   --> G_6   D_6      
     e( 31 - 32) =      8.03744  eV     2   --> G_7   D_7      
     e( 33 - 34) =     13.93238  eV     2   --> G_7   D_7      
     e( 35 - 36) =     14.01432  eV     2   --> G_6   D_6      

 **************************************************************************

 **************************************************************************

                    xk=(   0.00000,   0.66468,   0.00000  )

     Band symmetry, C_4v (4mm)  double point group:

     e(  1 -  2) =    -14.11969  eV     2   --> G_6   D_6      
     e(  3 -  4) =    -14.11086  eV     2   --> G_7   D_7      
     e(  5 -  6) =    -13.70442  eV     2   --> G_6   D_6      
     e(  7 -  8) =    -13.68912  eV     2   --> G_7   D_7      
     e(  9 - 10) =    -12.92482  eV     2   --> G_6   D_6      
     e( 11 - 12) =    -12.91346  eV     2   --> G_7   D_7      
     e( 13 - 14) =    -12.64108  eV     2   --> G_7   D_7      
     e( 15 - 16) =    -12.64078  eV     2   --> G_6   D_6      
     e( 17 - 18) =    -12.12838  eV     2   --> G_6   D_6      
     e( 19 - 20) =    -12.12497  eV     2   --> G_7   D_7      
     e( 21 - 22) =     -0.66917  eV     2   --> G_6   D_6      
     e( 23 - 24) =     -0.02845  eV     2   --> G_7   D_7      
     e( 25 - 26) =      4.70904  eV     2   --> G_7   D_7      
     e( 27 - 28) =      4.72060  eV     2   --> G_6   D_6      
     e( 29 - 30) =      7.83943  eV     2   --> G_6   D_6      
     e( 31 - 32) =      8.01078  eV     2   --> G_7   D_7      
     e( 33 - 34) =     14.00222  eV     2   --> G_7   D_7      
     e( 35 - 36) =     14.06671  eV     2   --> G_6   D_6      

 **************************************************************************

 **************************************************************************

                    xk=(   0.00000,   0.67882,   0.00000  )

     Band symmetry, C_4v (4mm)  double point group:

     e(  1 -  2) =    -14.11987  eV     2   --> G_6   D_6      
     e(  3 -  4) =    -14.11397  eV     2   --> G_7   D_7      
     e(  5 -  6) =    -13.70280  eV     2   --> G_6   D_6      
     e(  7 -  8) =    -13.69260  eV     2   --> G_7   D_7      
     e(  9 - 10) =    -12.92401  eV     2   --> G_6   D_6      
     e( 11 - 12) =    -12.91642  eV     2   --> G_7   D_7      
     e( 13 - 14) =    -12.64227  eV     2   --> G_7   D_7      
     e( 15 - 16) =    -12.64205  eV     2   --> G_6   D_6      
     e( 17 - 18) =    -12.12876  eV     2   --> G_6   D_6      
     e( 19 - 20) =    -12.12649  eV     2   --> G_7   D_7      
     e( 21 - 22) =     -0.56640  eV     2   --> G_6   D_6      
     e( 23 - 24) =     -0.13913  eV     2   --> G_7   D_7      
     e( 25 - 26) =      4.70445  eV     2   --> G_7   D_7      
     e( 27 - 28) =      4.71215  eV     2   --> G_6   D_6      
     e( 29 - 30) =      7.86130  eV     2   --> G_6   D_6      
     e( 31 - 32) =      7.97570  eV     2   --> G_7   D_7      
     e( 33 - 34) =     14.05408  eV     2   --> G_7   D_7      
     e( 35 - 36) =     14.09869  eV     2   --> G_6   D_6      

 **************************************************************************

 **************************************************************************

                    xk=(   0.00000,   0.69296,   0.00000  )

     Band symmetry, C_4v (4mm)  double point group:

     e(  1 -  2) =    -14.11938  eV     2   --> G_6   D_6      
     e(  3 -  4) =    -14.11644  eV     2   --> G_7   D_7      
     e(  5 -  6) =    -13.70080  eV     2   --> G_6   D_6      
     e(  7 -  8) =    -13.69571  eV     2   --> G_7   D_7      
     e(  9 - 10) =    -12.92276  eV     2   --> G_6   D_6      
     e( 11 - 12) =    -12.91896  eV     2   --> G_7   D_7      
     e( 13 - 14) =    -12.64296  eV     2   --> G_7   D_7      
     e( 15 - 16) =    -12.64285  eV     2   --> G_6   D_6      
     e( 17 - 18) =    -12.12876  eV     2   --> G_6   D_6      
     e( 19 - 20) =    -12.12763  eV     2   --> G_7   D_7      
     e( 21 - 22) =     -0.46197  eV     2   --> G_6   D_6      
     e( 23 - 24) =     -0.24830  eV     2   --> G_7   D_7      
     e( 25 - 26) =      4.70247  eV     2   --> G_7   D_7      
     e( 27 - 28) =      4.70631  eV     2   --> G_6   D_6      
     e( 29 - 30) =      7.88591  eV     2   --> G_6   D_6      
     e( 31 - 32) =      7.94316  eV     2   --> G_7   D_7      
     e( 33 - 34) =     14.09075  eV     2   --> G_7   D_7      
     e( 35 - 36) =     14.11358  eV     2   --> G_6   D_6      

 **************************************************************************

 **************************************************************************

                    xk=(   0.00000,   0.70711,   0.00000  )

     zone border point and non-symmorphic group 
     symmetry decomposition not available

 **************************************************************************
 
     BANDS        :   2m28.00s CPU   3m 2.76s WALL

 
   This run was terminated on:  15:25:29   9Oct2020            

=------------------------------------------------------------------------------=
   JOB DONE.
=------------------------------------------------------------------------------=
