
     Program PWSCF v.6.6 starts on  7Nov2020 at 21:31:10 

     This program is part of the open-source Quantum ESPRESSO suite
     for quantum simulation of materials; please cite
         "P. Giannozzi et al., J. Phys.:Condens. Matter 21 395502 (2009);
         "P. Giannozzi et al., J. Phys.:Condens. Matter 29 465901 (2017);
          URL http://www.quantum-espresso.org", 
     in publications or presentations arising from this work. More details at
     http://www.quantum-espresso.org/quote

     Parallel version (MPI), running on     8 processors

     MPI processes distributed on     1 nodes
     R & G space division:  proc/nbgrp/npool/nimage =       8
     Fft bands division:     nmany     =       1
     Reading input from nscf.in

     Current dimensions of program PWSCF are:
     Max number of different atomic species (ntypx) = 10
     Max number of k-points (npk) =  40000
     Max angular momentum in pseudopotentials (lmaxx) =  3

     Atomic positions and unit cell read from directory:
     ./outdir/graphene.save/
     Atomic positions from file used, from input discarded
 
     Message from routine readpp:
     file ./outdir/graphene.save/C.pbe-n-kjpaw_psl.1.0.0.UPF not found
     file C.pbe-n-kjpaw_psl.1.0.0.UPF: wavefunction(s)  2S 2P renormalized

     Subspace diagonalization in iterative solution of the eigenvalue problem:
     a serial algorithm will be used

     Message from routine find_sym:
     Not a group! Trying with lower acceptance parameter...
     Message from routine find_sym:
     Still not a group! symmetry disabled
 
     Parallelization info
     --------------------
     sticks:   dense  smooth     PW     G-vecs:    dense   smooth      PW
     Min          68      30     15                 2248      662     227
     Max          69      31     16                 2253      669     232
     Sum         547     241    121                17995     5313    1835
 


     bravais-lattice index     =            0
     lattice parameter (alat)  =       4.6633  a.u.
     unit-cell volume          =     154.5471 (a.u.)^3
     number of atoms/cell      =            2
     number of atomic types    =            1
     number of electrons       =         8.00
     number of Kohn-Sham states=            8
     kinetic-energy cutoff     =      40.1868  Ry
     charge density cutoff     =     361.6810  Ry
     Exchange-correlation= SLA PW PBX PBC
                           (   1   4   3   4   0   0   0)

     celldm(1)=   4.663315  celldm(2)=   0.000000  celldm(3)=   0.000000
     celldm(4)=   0.000000  celldm(5)=   0.000000  celldm(6)=   0.000000

     crystal axes: (cart. coord. in units of alat)
               a(1) = (   1.000000   0.000000   0.000000 )  
               a(2) = (  -0.500000   0.866025   0.000000 )  
               a(3) = (   0.000000   0.000000   1.759730 )  

     reciprocal axes: (cart. coord. in units 2 pi/alat)
               b(1) = (  1.000000  0.577350  0.000000 )  
               b(2) = (  0.000000  1.154701  0.000000 )  
               b(3) = (  0.000000  0.000000  0.568269 )  


     PseudoPot. # 1 for C  read from file:
     ~/pseudos/C.pbe-n-kjpaw_psl.1.0.0.UPF
     MD5 check sum: Not computed, couldn't open file
     Pseudo is Projector augmented-wave + core cor, Zval =  4.0
     Generated using "atomic" code by A. Dal Corso v.5.1
     Shape of augmentation charge: PSQ
     Using radial grid of 1073 points,  4 beta functions with: 
                l(1) =   0
                l(2) =   0
                l(3) =   1
                l(4) =   1
     Q(r) pseudized with 0 coefficients 


     atomic species   valence    mass     pseudopotential
        C              4.00    12.01070     C ( 1.00)

     No symmetry found



   Cartesian axes

     site n.     atom                  positions (alat units)
         1           C   tau(   1) = (   0.0000000   0.0000000   0.8798648  )
         2           C   tau(   2) = (   0.5000010   0.2886757   0.8798648  )

     number of k points=   256  Gaussian smearing, width (Ry)=  0.0100

     Number of k-points >= 100: set verbosity='high' to print them.

     Dense  grid:    17995 G-vectors     FFT dimensions: (  30,  30,  50)

     Smooth grid:     5313 G-vectors     FFT dimensions: (  20,  20,  36)

     Estimated max dynamical RAM per process >       2.74 MB

     Estimated total dynamical RAM >      21.91 MB

     Check: negative core charge=   -0.000010

     The potential is recalculated from file :
     ./outdir/graphene.save/charge-density

     Starting wfcs are    8 randomized atomic wfcs
     Checking if some PAW data can be deallocated... 

     Band Structure Calculation
     Davidson diagonalization with overlap

     ethr =  1.25E-10,  avg # of iterations = 22.0

     total cpu time spent up to now is       14.9 secs

     End of band structure calculation

     Number of k-points >= 100: set verbosity='high' to print the bands.

     the Fermi energy is     4.7733 ev
     (compare with:     4.8085 eV, computed in scf)

     Writing output data file ./outdir/graphene.save/
 
     init_run     :      0.12s CPU      0.20s WALL (       1 calls)
     electrons    :      9.74s CPU     13.83s WALL (       1 calls)

     Called by init_run:
     wfcinit      :      0.00s CPU      0.00s WALL (       1 calls)
     potinit      :      0.06s CPU      0.08s WALL (       1 calls)
     hinit0       :      0.06s CPU      0.10s WALL (       1 calls)

     Called by electrons:
     c_bands      :      9.74s CPU     13.83s WALL (       1 calls)
     v_of_rho     :      0.01s CPU      0.03s WALL (       1 calls)
     newd         :      0.00s CPU      0.01s WALL (       1 calls)
     PAW_pot      :      0.04s CPU      0.05s WALL (       1 calls)

     Called by c_bands:
     init_us_2    :      0.01s CPU      0.01s WALL (     256 calls)
     cegterg      :      9.12s CPU     12.95s WALL (     368 calls)

     Called by *egterg:
     cdiaghg      :      0.61s CPU      0.74s WALL (    5879 calls)
     h_psi        :      7.48s CPU     10.68s WALL (    6247 calls)
     s_psi        :      0.06s CPU      0.07s WALL (    6247 calls)
     g_psi        :      0.02s CPU      0.02s WALL (    5623 calls)

     Called by h_psi:
     h_psi:calbec :      0.69s CPU      1.01s WALL (    6247 calls)
     vloc_psi     :      6.61s CPU      9.45s WALL (    6247 calls)
     add_vuspsi   :      0.11s CPU      0.14s WALL (    6247 calls)

     General routines
     calbec       :      0.67s CPU      0.98s WALL (    6247 calls)
     fft          :      0.02s CPU      0.06s WALL (      13 calls)
     ffts         :      0.00s CPU      0.00s WALL (       1 calls)
     fftw         :      6.23s CPU      8.98s WALL (   62090 calls)
     interpolate  :      0.00s CPU      0.00s WALL (       1 calls)
     davcio       :      0.02s CPU      0.02s WALL (     512 calls)
 
     Parallel routines
     fft_scatt_xy :      0.25s CPU      0.30s WALL (   62104 calls)
     fft_scatt_yz :      3.63s CPU      5.77s WALL (   62104 calls)
 
     PWSCF        :     10.85s CPU     15.41s WALL

 
   This run was terminated on:  21:31:26   7Nov2020            

=------------------------------------------------------------------------------=
   JOB DONE.
=------------------------------------------------------------------------------=
