
     Program PWSCF v.6.6 starts on  3Nov2020 at 23: 7:33 

     This program is part of the open-source Quantum ESPRESSO suite
     for quantum simulation of materials; please cite
         "P. Giannozzi et al., J. Phys.:Condens. Matter 21 395502 (2009);
         "P. Giannozzi et al., J. Phys.:Condens. Matter 29 465901 (2017);
          URL http://www.quantum-espresso.org", 
     in publications or presentations arising from this work. More details at
     http://www.quantum-espresso.org/quote

     Parallel version (MPI), running on     8 processors

     MPI processes distributed on     1 nodes
     R & G space division:  proc/nbgrp/npool/nimage =       8
     Fft bands division:     nmany     =       1
     Reading input from bands.in

     Current dimensions of program PWSCF are:
     Max number of different atomic species (ntypx) = 10
     Max number of k-points (npk) =  40000
     Max angular momentum in pseudopotentials (lmaxx) =  3

     Atomic positions and unit cell read from directory:
     ./outdir/Li.save/
 
     Message from routine readpp:
     file ./outdir/Li.save/li_pbe_v1.4.uspp.F.UPF not found

     Subspace diagonalization in iterative solution of the eigenvalue problem:
     a serial algorithm will be used

 
     Parallelization info
     --------------------
     sticks:   dense  smooth     PW     G-vecs:    dense   smooth      PW
     Min         272     121     35                 8038     2383     387
     Max         273     122     36                 8041     2385     390
     Sum        2179     969    283                64315    19069    3103
 


     bravais-lattice index     =            3
     lattice parameter (alat)  =       6.4758  a.u.
     unit-cell volume          =     135.7815 (a.u.)^3
     number of atoms/cell      =            1
     number of atomic types    =            1
     number of electrons       =         3.00
     number of Kohn-Sham states=            4
     kinetic-energy cutoff     =     102.5120  Ry
     charge density cutoff     =     922.6080  Ry
     Exchange-correlation=  SLA  PW   PBX  PBC
                           (   1   4   3   4   0   0   0)

     celldm(1)=   6.475751  celldm(2)=   0.000000  celldm(3)=   0.000000
     celldm(4)=   0.000000  celldm(5)=   0.000000  celldm(6)=   0.000000

     crystal axes: (cart. coord. in units of alat)
               a(1) = (   0.500000   0.500000   0.500000 )  
               a(2) = (  -0.500000   0.500000   0.500000 )  
               a(3) = (  -0.500000  -0.500000   0.500000 )  

     reciprocal axes: (cart. coord. in units 2 pi/alat)
               b(1) = (  1.000000  0.000000  1.000000 )  
               b(2) = ( -1.000000  1.000000  0.000000 )  
               b(3) = (  0.000000 -1.000000  1.000000 )  


     PseudoPot. # 1 for Li read from file:
     ~/pseudos/li_pbe_v1.4.uspp.F.UPF
     MD5 check sum: Not computed, couldn't open file
     Pseudo is Ultrasoft, Zval =  3.0
     Generated by new atomic code, or converted to UPF format
     Using radial grid of  751 points,  5 beta functions with: 
                l(1) =   0
                l(2) =   0
                l(3) =   0
                l(4) =   1
                l(5) =   1
     Q(r) pseudized with 10 coefficients,  rinner =    1.150   1.150   1.150


     atomic species   valence    mass     pseudopotential
        Li             3.00     6.94100     Li( 1.00)

     48 Sym. Ops., with inversion, found



   Cartesian axes

     site n.     atom                  positions (alat units)
         1           Li  tau(   1) = (   0.0000000   0.0000000   0.0000000  )

     number of k points=   101  Gaussian smearing, width (Ry)=  0.0100

     Number of k-points >= 100: set verbosity='high' to print them.

     Dense  grid:    64315 G-vectors     FFT dimensions: (  60,  60,  60)

     Smooth grid:    19069 G-vectors     FFT dimensions: (  40,  40,  40)

     Estimated max dynamical RAM per process >      10.58 MB

     Estimated total dynamical RAM >      84.61 MB

     The potential is recalculated from file :
     ./outdir/Li.save/charge-density

     Starting wfcs are    5 randomized atomic wfcs

     Band Structure Calculation
     Davidson diagonalization with overlap
     c_bands:  2 eigenvalues not converged
     c_bands:  1 eigenvalues not converged

     ethr =  3.33E-08,  avg # of iterations = 24.9

     total cpu time spent up to now is        3.8 secs

     End of band structure calculation

     Number of k-points >= 100: set verbosity='high' to print the bands.

     Writing output data file ./outdir/Li.save/
 
     init_run     :      0.20s CPU      0.23s WALL (       1 calls)
     electrons    :      2.68s CPU      2.95s WALL (       1 calls)

     Called by init_run:
     wfcinit      :      0.00s CPU      0.00s WALL (       1 calls)
     potinit      :      0.05s CPU      0.05s WALL (       1 calls)
     hinit0       :      0.04s CPU      0.06s WALL (       1 calls)

     Called by electrons:
     c_bands      :      2.68s CPU      2.95s WALL (       1 calls)
     v_of_rho     :      0.04s CPU      0.04s WALL (       1 calls)
     newd         :      0.01s CPU      0.02s WALL (       1 calls)

     Called by c_bands:
     init_us_2    :      0.01s CPU      0.01s WALL (     101 calls)
     cegterg      :      2.49s CPU      2.73s WALL (     159 calls)

     Called by *egterg:
     cdiaghg      :      0.13s CPU      0.14s WALL (    2616 calls)
     h_psi        :      2.13s CPU      2.34s WALL (    2775 calls)
     s_psi        :      0.03s CPU      0.03s WALL (    2775 calls)
     g_psi        :      0.01s CPU      0.01s WALL (    2515 calls)

     Called by h_psi:
     h_psi:calbec :      0.13s CPU      0.15s WALL (    2775 calls)
     vloc_psi     :      1.93s CPU      2.12s WALL (    2775 calls)
     add_vuspsi   :      0.04s CPU      0.04s WALL (    2775 calls)

     General routines
     calbec       :      0.13s CPU      0.14s WALL (    2775 calls)
     fft          :      0.03s CPU      0.06s WALL (      12 calls)
     ffts         :      0.00s CPU      0.00s WALL (       1 calls)
     fftw         :      1.71s CPU      1.88s WALL (   14834 calls)
     interpolate  :      0.00s CPU      0.00s WALL (       1 calls)
     davcio       :      0.00s CPU      0.01s WALL (     202 calls)
 
     Parallel routines
     fft_scatt_xy :      0.17s CPU      0.18s WALL (   14847 calls)
     fft_scatt_yz :      0.57s CPU      0.64s WALL (   14847 calls)
 
     PWSCF        :      3.46s CPU      3.85s WALL

 
   This run was terminated on:  23: 7:37   3Nov2020            

=------------------------------------------------------------------------------=
   JOB DONE.
=------------------------------------------------------------------------------=
