File written on  3Nov2020 at 23:43:14 

calc_only_A  :  F

begin real_lattice
   1.7134100   1.7134100   1.7134100
  -1.7134100   1.7134100   1.7134100
  -1.7134100  -1.7134100   1.7134100
end real_lattice

begin recip_lattice
   1.8335323   0.0000000   1.8335323
  -1.8335323   1.8335323   0.0000000
   0.0000000  -1.8335323   1.8335323
end recip_lattice

begin kpoints
   216
    0.00000000    0.00000000    0.00000000
    0.00000000    0.00000000    0.16666667
    0.00000000    0.00000000    0.33333333
    0.00000000    0.00000000    0.50000000
    0.00000000    0.00000000    0.66666667
    0.00000000    0.00000000    0.83333333
    0.00000000    0.16666667    0.00000000
    0.00000000    0.16666667    0.16666667
    0.00000000    0.16666667    0.33333333
    0.00000000    0.16666667    0.50000000
    0.00000000    0.16666667    0.66666667
    0.00000000    0.16666667    0.83333333
    0.00000000    0.33333333    0.00000000
    0.00000000    0.33333333    0.16666667
    0.00000000    0.33333333    0.33333333
    0.00000000    0.33333333    0.50000000
    0.00000000    0.33333333    0.66666667
    0.00000000    0.33333333    0.83333333
    0.00000000    0.50000000    0.00000000
    0.00000000    0.50000000    0.16666667
    0.00000000    0.50000000    0.33333333
    0.00000000    0.50000000    0.50000000
    0.00000000    0.50000000    0.66666667
    0.00000000    0.50000000    0.83333333
    0.00000000    0.66666667    0.00000000
    0.00000000    0.66666667    0.16666667
    0.00000000    0.66666667    0.33333333
    0.00000000    0.66666667    0.50000000
    0.00000000    0.66666667    0.66666667
    0.00000000    0.66666667    0.83333333
    0.00000000    0.83333333    0.00000000
    0.00000000    0.83333333    0.16666667
    0.00000000    0.83333333    0.33333333
    0.00000000    0.83333333    0.50000000
    0.00000000    0.83333333    0.66666667
    0.00000000    0.83333333    0.83333333
    0.16666667    0.00000000    0.00000000
    0.16666667    0.00000000    0.16666667
    0.16666667    0.00000000    0.33333333
    0.16666667    0.00000000    0.50000000
    0.16666667    0.00000000    0.66666667
    0.16666667    0.00000000    0.83333333
    0.16666667    0.16666667    0.00000000
    0.16666667    0.16666667    0.16666667
    0.16666667    0.16666667    0.33333333
    0.16666667    0.16666667    0.50000000
    0.16666667    0.16666667    0.66666667
    0.16666667    0.16666667    0.83333333
    0.16666667    0.33333333    0.00000000
    0.16666667    0.33333333    0.16666667
    0.16666667    0.33333333    0.33333333
    0.16666667    0.33333333    0.50000000
    0.16666667    0.33333333    0.66666667
    0.16666667    0.33333333    0.83333333
    0.16666667    0.50000000    0.00000000
    0.16666667    0.50000000    0.16666667
    0.16666667    0.50000000    0.33333333
    0.16666667    0.50000000    0.50000000
    0.16666667    0.50000000    0.66666667
    0.16666667    0.50000000    0.83333333
    0.16666667    0.66666667    0.00000000
    0.16666667    0.66666667    0.16666667
    0.16666667    0.66666667    0.33333333
    0.16666667    0.66666667    0.50000000
    0.16666667    0.66666667    0.66666667
    0.16666667    0.66666667    0.83333333
    0.16666667    0.83333333    0.00000000
    0.16666667    0.83333333    0.16666667
    0.16666667    0.83333333    0.33333333
    0.16666667    0.83333333    0.50000000
    0.16666667    0.83333333    0.66666667
    0.16666667    0.83333333    0.83333333
    0.33333333    0.00000000    0.00000000
    0.33333333    0.00000000    0.16666667
    0.33333333    0.00000000    0.33333333
    0.33333333    0.00000000    0.50000000
    0.33333333    0.00000000    0.66666667
    0.33333333    0.00000000    0.83333333
    0.33333333    0.16666667    0.00000000
    0.33333333    0.16666667    0.16666667
    0.33333333    0.16666667    0.33333333
    0.33333333    0.16666667    0.50000000
    0.33333333    0.16666667    0.66666667
    0.33333333    0.16666667    0.83333333
    0.33333333    0.33333333    0.00000000
    0.33333333    0.33333333    0.16666667
    0.33333333    0.33333333    0.33333333
    0.33333333    0.33333333    0.50000000
    0.33333333    0.33333333    0.66666667
    0.33333333    0.33333333    0.83333333
    0.33333333    0.50000000    0.00000000
    0.33333333    0.50000000    0.16666667
    0.33333333    0.50000000    0.33333333
    0.33333333    0.50000000    0.50000000
    0.33333333    0.50000000    0.66666667
    0.33333333    0.50000000    0.83333333
    0.33333333    0.66666667    0.00000000
    0.33333333    0.66666667    0.16666667
    0.33333333    0.66666667    0.33333333
    0.33333333    0.66666667    0.50000000
    0.33333333    0.66666667    0.66666667
    0.33333333    0.66666667    0.83333333
    0.33333333    0.83333333    0.00000000
    0.33333333    0.83333333    0.16666667
    0.33333333    0.83333333    0.33333333
    0.33333333    0.83333333    0.50000000
    0.33333333    0.83333333    0.66666667
    0.33333333    0.83333333    0.83333333
    0.50000000    0.00000000    0.00000000
    0.50000000    0.00000000    0.16666667
    0.50000000    0.00000000    0.33333333
    0.50000000    0.00000000    0.50000000
    0.50000000    0.00000000    0.66666667
    0.50000000    0.00000000    0.83333333
    0.50000000    0.16666667    0.00000000
    0.50000000    0.16666667    0.16666667
    0.50000000    0.16666667    0.33333333
    0.50000000    0.16666667    0.50000000
    0.50000000    0.16666667    0.66666667
    0.50000000    0.16666667    0.83333333
    0.50000000    0.33333333    0.00000000
    0.50000000    0.33333333    0.16666667
    0.50000000    0.33333333    0.33333333
    0.50000000    0.33333333    0.50000000
    0.50000000    0.33333333    0.66666667
    0.50000000    0.33333333    0.83333333
    0.50000000    0.50000000    0.00000000
    0.50000000    0.50000000    0.16666667
    0.50000000    0.50000000    0.33333333
    0.50000000    0.50000000    0.50000000
    0.50000000    0.50000000    0.66666667
    0.50000000    0.50000000    0.83333333
    0.50000000    0.66666667    0.00000000
    0.50000000    0.66666667    0.16666667
    0.50000000    0.66666667    0.33333333
    0.50000000    0.66666667    0.50000000
    0.50000000    0.66666667    0.66666667
    0.50000000    0.66666667    0.83333333
    0.50000000    0.83333333    0.00000000
    0.50000000    0.83333333    0.16666667
    0.50000000    0.83333333    0.33333333
    0.50000000    0.83333333    0.50000000
    0.50000000    0.83333333    0.66666667
    0.50000000    0.83333333    0.83333333
    0.66666667    0.00000000    0.00000000
    0.66666667    0.00000000    0.16666667
    0.66666667    0.00000000    0.33333333
    0.66666667    0.00000000    0.50000000
    0.66666667    0.00000000    0.66666667
    0.66666667    0.00000000    0.83333333
    0.66666667    0.16666667    0.00000000
    0.66666667    0.16666667    0.16666667
    0.66666667    0.16666667    0.33333333
    0.66666667    0.16666667    0.50000000
    0.66666667    0.16666667    0.66666667
    0.66666667    0.16666667    0.83333333
    0.66666667    0.33333333    0.00000000
    0.66666667    0.33333333    0.16666667
    0.66666667    0.33333333    0.33333333
    0.66666667    0.33333333    0.50000000
    0.66666667    0.33333333    0.66666667
    0.66666667    0.33333333    0.83333333
    0.66666667    0.50000000    0.00000000
    0.66666667    0.50000000    0.16666667
    0.66666667    0.50000000    0.33333333
    0.66666667    0.50000000    0.50000000
    0.66666667    0.50000000    0.66666667
    0.66666667    0.50000000    0.83333333
    0.66666667    0.66666667    0.00000000
    0.66666667    0.66666667    0.16666667
    0.66666667    0.66666667    0.33333333
    0.66666667    0.66666667    0.50000000
    0.66666667    0.66666667    0.66666667
    0.66666667    0.66666667    0.83333333
    0.66666667    0.83333333    0.00000000
    0.66666667    0.83333333    0.16666667
    0.66666667    0.83333333    0.33333333
    0.66666667    0.83333333    0.50000000
    0.66666667    0.83333333    0.66666667
    0.66666667    0.83333333    0.83333333
    0.83333333    0.00000000    0.00000000
    0.83333333    0.00000000    0.16666667
    0.83333333    0.00000000    0.33333333
    0.83333333    0.00000000    0.50000000
    0.83333333    0.00000000    0.66666667
    0.83333333    0.00000000    0.83333333
    0.83333333    0.16666667    0.00000000
    0.83333333    0.16666667    0.16666667
    0.83333333    0.16666667    0.33333333
    0.83333333    0.16666667    0.50000000
    0.83333333    0.16666667    0.66666667
    0.83333333    0.16666667    0.83333333
    0.83333333    0.33333333    0.00000000
    0.83333333    0.33333333    0.16666667
    0.83333333    0.33333333    0.33333333
    0.83333333    0.33333333    0.50000000
    0.83333333    0.33333333    0.66666667
    0.83333333    0.33333333    0.83333333
    0.83333333    0.50000000    0.00000000
    0.83333333    0.50000000    0.16666667
    0.83333333    0.50000000    0.33333333
    0.83333333    0.50000000    0.50000000
    0.83333333    0.50000000    0.66666667
    0.83333333    0.50000000    0.83333333
    0.83333333    0.66666667    0.00000000
    0.83333333    0.66666667    0.16666667
    0.83333333    0.66666667    0.33333333
    0.83333333    0.66666667    0.50000000
    0.83333333    0.66666667    0.66666667
    0.83333333    0.66666667    0.83333333
    0.83333333    0.83333333    0.00000000
    0.83333333    0.83333333    0.16666667
    0.83333333    0.83333333    0.33333333
    0.83333333    0.83333333    0.50000000
    0.83333333    0.83333333    0.66666667
    0.83333333    0.83333333    0.83333333
end kpoints

begin projections
     4
   0.00000    0.00000    0.00000     0  1  1
    0.0000000  0.0000000  1.0000000   1.0000000  0.0000000  0.0000000    1.00
   0.00000    0.00000    0.00000     1  1  1
    0.0000000  0.0000000  1.0000000   1.0000000  0.0000000  0.0000000    1.00
   0.00000    0.00000    0.00000     1  2  1
    0.0000000  0.0000000  1.0000000   1.0000000  0.0000000  0.0000000    1.00
   0.00000    0.00000    0.00000     1  3  1
    0.0000000  0.0000000  1.0000000   1.0000000  0.0000000  0.0000000    1.00
end projections

begin nnkpts
  12
     1     2      0   0   0
     1     7      0   0   0
     1     8      0   0   0
     1    37      0   0   0
     1    43      0   0   0
     1     6      0   0  -1
     1    42      0   0  -1
     1    31      0  -1   0
     1    36      0  -1  -1
     1   181     -1   0   0
     1   182     -1   0   0
     1   211     -1  -1   0
     2     1      0   0   0
     2     3      0   0   0
     2     8      0   0   0
     2     9      0   0   0
     2    37      0   0   0
     2    38      0   0   0
     2    44      0   0   0
     2    31      0  -1   0
     2    32      0  -1   0
     2   182     -1   0   0
     2   183     -1   0   0
     2   212     -1  -1   0
     3     2      0   0   0
     3     4      0   0   0
     3     9      0   0   0
     3    10      0   0   0
     3    38      0   0   0
     3    39      0   0   0
     3    45      0   0   0
     3    32      0  -1   0
     3    33      0  -1   0
     3   183     -1   0   0
     3   184     -1   0   0
     3   213     -1  -1   0
     4     3      0   0   0
     4     5      0   0   0
     4    10      0   0   0
     4    11      0   0   0
     4    39      0   0   0
     4    40      0   0   0
     4    46      0   0   0
     4    33      0  -1   0
     4    34      0  -1   0
     4   184     -1   0   0
     4   185     -1   0   0
     4   214     -1  -1   0
     5     4      0   0   0
     5     6      0   0   0
     5    11      0   0   0
     5    12      0   0   0
     5    40      0   0   0
     5    41      0   0   0
     5    47      0   0   0
     5    34      0  -1   0
     5    35      0  -1   0
     5   185     -1   0   0
     5   186     -1   0   0
     5   215     -1  -1   0
     6     5      0   0   0
     6    12      0   0   0
     6    41      0   0   0
     6    42      0   0   0
     6    48      0   0   0
     6     1      0   0   1
     6     7      0   0   1
     6    35      0  -1   0
     6    36      0  -1   0
     6   181     -1   0   1
     6   186     -1   0   0
     6   216     -1  -1   0
     7     1      0   0   0
     7     8      0   0   0
     7    13      0   0   0
     7    14      0   0   0
     7    43      0   0   0
     7    49      0   0   0
     7     6      0   0  -1
     7    12      0   0  -1
     7    48      0   0  -1
     7   181     -1   0   0
     7   187     -1   0   0
     7   188     -1   0   0
     8     1      0   0   0
     8     2      0   0   0
     8     7      0   0   0
     8     9      0   0   0
     8    14      0   0   0
     8    15      0   0   0
     8    43      0   0   0
     8    44      0   0   0
     8    50      0   0   0
     8   182     -1   0   0
     8   188     -1   0   0
     8   189     -1   0   0
     9     2      0   0   0
     9     3      0   0   0
     9     8      0   0   0
     9    10      0   0   0
     9    15      0   0   0
     9    16      0   0   0
     9    44      0   0   0
     9    45      0   0   0
     9    51      0   0   0
     9   183     -1   0   0
     9   189     -1   0   0
     9   190     -1   0   0
    10     3      0   0   0
    10     4      0   0   0
    10     9      0   0   0
    10    11      0   0   0
    10    16      0   0   0
    10    17      0   0   0
    10    45      0   0   0
    10    46      0   0   0
    10    52      0   0   0
    10   184     -1   0   0
    10   190     -1   0   0
    10   191     -1   0   0
    11     4      0   0   0
    11     5      0   0   0
    11    10      0   0   0
    11    12      0   0   0
    11    17      0   0   0
    11    18      0   0   0
    11    46      0   0   0
    11    47      0   0   0
    11    53      0   0   0
    11   185     -1   0   0
    11   191     -1   0   0
    11   192     -1   0   0
    12     5      0   0   0
    12     6      0   0   0
    12    11      0   0   0
    12    18      0   0   0
    12    47      0   0   0
    12    48      0   0   0
    12    54      0   0   0
    12     7      0   0   1
    12    13      0   0   1
    12   187     -1   0   1
    12   186     -1   0   0
    12   192     -1   0   0
    13     7      0   0   0
    13    14      0   0   0
    13    19      0   0   0
    13    20      0   0   0
    13    49      0   0   0
    13    55      0   0   0
    13    12      0   0  -1
    13    18      0   0  -1
    13    54      0   0  -1
    13   187     -1   0   0
    13   193     -1   0   0
    13   194     -1   0   0
    14     7      0   0   0
    14     8      0   0   0
    14    13      0   0   0
    14    15      0   0   0
    14    20      0   0   0
    14    21      0   0   0
    14    49      0   0   0
    14    50      0   0   0
    14    56      0   0   0
    14   188     -1   0   0
    14   194     -1   0   0
    14   195     -1   0   0
    15     8      0   0   0
    15     9      0   0   0
    15    14      0   0   0
    15    16      0   0   0
    15    21      0   0   0
    15    22      0   0   0
    15    50      0   0   0
    15    51      0   0   0
    15    57      0   0   0
    15   189     -1   0   0
    15   195     -1   0   0
    15   196     -1   0   0
    16     9      0   0   0
    16    10      0   0   0
    16    15      0   0   0
    16    17      0   0   0
    16    22      0   0   0
    16    23      0   0   0
    16    51      0   0   0
    16    52      0   0   0
    16    58      0   0   0
    16   190     -1   0   0
    16   196     -1   0   0
    16   197     -1   0   0
    17    10      0   0   0
    17    11      0   0   0
    17    16      0   0   0
    17    18      0   0   0
    17    23      0   0   0
    17    24      0   0   0
    17    52      0   0   0
    17    53      0   0   0
    17    59      0   0   0
    17   191     -1   0   0
    17   197     -1   0   0
    17   198     -1   0   0
    18    11      0   0   0
    18    12      0   0   0
    18    17      0   0   0
    18    24      0   0   0
    18    53      0   0   0
    18    54      0   0   0
    18    60      0   0   0
    18    13      0   0   1
    18    19      0   0   1
    18   193     -1   0   1
    18   192     -1   0   0
    18   198     -1   0   0
    19    13      0   0   0
    19    20      0   0   0
    19    25      0   0   0
    19    26      0   0   0
    19    55      0   0   0
    19    61      0   0   0
    19    18      0   0  -1
    19    24      0   0  -1
    19    60      0   0  -1
    19   193     -1   0   0
    19   199     -1   0   0
    19   200     -1   0   0
    20    13      0   0   0
    20    14      0   0   0
    20    19      0   0   0
    20    21      0   0   0
    20    26      0   0   0
    20    27      0   0   0
    20    55      0   0   0
    20    56      0   0   0
    20    62      0   0   0
    20   194     -1   0   0
    20   200     -1   0   0
    20   201     -1   0   0
    21    14      0   0   0
    21    15      0   0   0
    21    20      0   0   0
    21    22      0   0   0
    21    27      0   0   0
    21    28      0   0   0
    21    56      0   0   0
    21    57      0   0   0
    21    63      0   0   0
    21   195     -1   0   0
    21   201     -1   0   0
    21   202     -1   0   0
    22    15      0   0   0
    22    16      0   0   0
    22    21      0   0   0
    22    23      0   0   0
    22    28      0   0   0
    22    29      0   0   0
    22    57      0   0   0
    22    58      0   0   0
    22    64      0   0   0
    22   196     -1   0   0
    22   202     -1   0   0
    22   203     -1   0   0
    23    16      0   0   0
    23    17      0   0   0
    23    22      0   0   0
    23    24      0   0   0
    23    29      0   0   0
    23    30      0   0   0
    23    58      0   0   0
    23    59      0   0   0
    23    65      0   0   0
    23   197     -1   0   0
    23   203     -1   0   0
    23   204     -1   0   0
    24    17      0   0   0
    24    18      0   0   0
    24    23      0   0   0
    24    30      0   0   0
    24    59      0   0   0
    24    60      0   0   0
    24    66      0   0   0
    24    19      0   0   1
    24    25      0   0   1
    24   199     -1   0   1
    24   198     -1   0   0
    24   204     -1   0   0
    25    19      0   0   0
    25    26      0   0   0
    25    31      0   0   0
    25    32      0   0   0
    25    61      0   0   0
    25    67      0   0   0
    25    24      0   0  -1
    25    30      0   0  -1
    25    66      0   0  -1
    25   199     -1   0   0
    25   205     -1   0   0
    25   206     -1   0   0
    26    19      0   0   0
    26    20      0   0   0
    26    25      0   0   0
    26    27      0   0   0
    26    32      0   0   0
    26    33      0   0   0
    26    61      0   0   0
    26    62      0   0   0
    26    68      0   0   0
    26   200     -1   0   0
    26   206     -1   0   0
    26   207     -1   0   0
    27    20      0   0   0
    27    21      0   0   0
    27    26      0   0   0
    27    28      0   0   0
    27    33      0   0   0
    27    34      0   0   0
    27    62      0   0   0
    27    63      0   0   0
    27    69      0   0   0
    27   201     -1   0   0
    27   207     -1   0   0
    27   208     -1   0   0
    28    21      0   0   0
    28    22      0   0   0
    28    27      0   0   0
    28    29      0   0   0
    28    34      0   0   0
    28    35      0   0   0
    28    63      0   0   0
    28    64      0   0   0
    28    70      0   0   0
    28   202     -1   0   0
    28   208     -1   0   0
    28   209     -1   0   0
    29    22      0   0   0
    29    23      0   0   0
    29    28      0   0   0
    29    30      0   0   0
    29    35      0   0   0
    29    36      0   0   0
    29    64      0   0   0
    29    65      0   0   0
    29    71      0   0   0
    29   203     -1   0   0
    29   209     -1   0   0
    29   210     -1   0   0
    30    23      0   0   0
    30    24      0   0   0
    30    29      0   0   0
    30    36      0   0   0
    30    65      0   0   0
    30    66      0   0   0
    30    72      0   0   0
    30    25      0   0   1
    30    31      0   0   1
    30   205     -1   0   1
    30   204     -1   0   0
    30   210     -1   0   0
    31    25      0   0   0
    31    32      0   0   0
    31    67      0   0   0
    31     1      0   1   0
    31     2      0   1   0
    31    37      0   1   0
    31    30      0   0  -1
    31    36      0   0  -1
    31    72      0   0  -1
    31   205     -1   0   0
    31   211     -1   0   0
    31   212     -1   0   0
    32    25      0   0   0
    32    26      0   0   0
    32    31      0   0   0
    32    33      0   0   0
    32    67      0   0   0
    32    68      0   0   0
    32     2      0   1   0
    32     3      0   1   0
    32    38      0   1   0
    32   206     -1   0   0
    32   212     -1   0   0
    32   213     -1   0   0
    33    26      0   0   0
    33    27      0   0   0
    33    32      0   0   0
    33    34      0   0   0
    33    68      0   0   0
    33    69      0   0   0
    33     3      0   1   0
    33     4      0   1   0
    33    39      0   1   0
    33   207     -1   0   0
    33   213     -1   0   0
    33   214     -1   0   0
    34    27      0   0   0
    34    28      0   0   0
    34    33      0   0   0
    34    35      0   0   0
    34    69      0   0   0
    34    70      0   0   0
    34     4      0   1   0
    34     5      0   1   0
    34    40      0   1   0
    34   208     -1   0   0
    34   214     -1   0   0
    34   215     -1   0   0
    35    28      0   0   0
    35    29      0   0   0
    35    34      0   0   0
    35    36      0   0   0
    35    70      0   0   0
    35    71      0   0   0
    35     5      0   1   0
    35     6      0   1   0
    35    41      0   1   0
    35   209     -1   0   0
    35   215     -1   0   0
    35   216     -1   0   0
    36    29      0   0   0
    36    30      0   0   0
    36    35      0   0   0
    36    71      0   0   0
    36    72      0   0   0
    36     1      0   1   1
    36     6      0   1   0
    36    42      0   1   0
    36    31      0   0   1
    36   211     -1   0   1
    36   210     -1   0   0
    36   216     -1   0   0
    37     1      0   0   0
    37     2      0   0   0
    37    38      0   0   0
    37    43      0   0   0
    37    44      0   0   0
    37    73      0   0   0
    37    79      0   0   0
    37    42      0   0  -1
    37    78      0   0  -1
    37    31      0  -1   0
    37    67      0  -1   0
    37    72      0  -1  -1
    38     2      0   0   0
    38     3      0   0   0
    38    37      0   0   0
    38    39      0   0   0
    38    44      0   0   0
    38    45      0   0   0
    38    73      0   0   0
    38    74      0   0   0
    38    80      0   0   0
    38    32      0  -1   0
    38    67      0  -1   0
    38    68      0  -1   0
    39     3      0   0   0
    39     4      0   0   0
    39    38      0   0   0
    39    40      0   0   0
    39    45      0   0   0
    39    46      0   0   0
    39    74      0   0   0
    39    75      0   0   0
    39    81      0   0   0
    39    33      0  -1   0
    39    68      0  -1   0
    39    69      0  -1   0
    40     4      0   0   0
    40     5      0   0   0
    40    39      0   0   0
    40    41      0   0   0
    40    46      0   0   0
    40    47      0   0   0
    40    75      0   0   0
    40    76      0   0   0
    40    82      0   0   0
    40    34      0  -1   0
    40    69      0  -1   0
    40    70      0  -1   0
    41     5      0   0   0
    41     6      0   0   0
    41    40      0   0   0
    41    42      0   0   0
    41    47      0   0   0
    41    48      0   0   0
    41    76      0   0   0
    41    77      0   0   0
    41    83      0   0   0
    41    35      0  -1   0
    41    70      0  -1   0
    41    71      0  -1   0
    42     6      0   0   0
    42    41      0   0   0
    42    48      0   0   0
    42    77      0   0   0
    42    78      0   0   0
    42    84      0   0   0
    42     1      0   0   1
    42    37      0   0   1
    42    43      0   0   1
    42    36      0  -1   0
    42    71      0  -1   0
    42    72      0  -1   0
    43     1      0   0   0
    43     7      0   0   0
    43     8      0   0   0
    43    37      0   0   0
    43    44      0   0   0
    43    49      0   0   0
    43    50      0   0   0
    43    79      0   0   0
    43    85      0   0   0
    43    42      0   0  -1
    43    48      0   0  -1
    43    84      0   0  -1
    44     2      0   0   0
    44     8      0   0   0
    44     9      0   0   0
    44    37      0   0   0
    44    38      0   0   0
    44    43      0   0   0
    44    45      0   0   0
    44    50      0   0   0
    44    51      0   0   0
    44    79      0   0   0
    44    80      0   0   0
    44    86      0   0   0
    45     3      0   0   0
    45     9      0   0   0
    45    10      0   0   0
    45    38      0   0   0
    45    39      0   0   0
    45    44      0   0   0
    45    46      0   0   0
    45    51      0   0   0
    45    52      0   0   0
    45    80      0   0   0
    45    81      0   0   0
    45    87      0   0   0
    46     4      0   0   0
    46    10      0   0   0
    46    11      0   0   0
    46    39      0   0   0
    46    40      0   0   0
    46    45      0   0   0
    46    47      0   0   0
    46    52      0   0   0
    46    53      0   0   0
    46    81      0   0   0
    46    82      0   0   0
    46    88      0   0   0
    47     5      0   0   0
    47    11      0   0   0
    47    12      0   0   0
    47    40      0   0   0
    47    41      0   0   0
    47    46      0   0   0
    47    48      0   0   0
    47    53      0   0   0
    47    54      0   0   0
    47    82      0   0   0
    47    83      0   0   0
    47    89      0   0   0
    48     6      0   0   0
    48    12      0   0   0
    48    41      0   0   0
    48    42      0   0   0
    48    47      0   0   0
    48    54      0   0   0
    48    83      0   0   0
    48    84      0   0   0
    48    90      0   0   0
    48     7      0   0   1
    48    43      0   0   1
    48    49      0   0   1
    49     7      0   0   0
    49    13      0   0   0
    49    14      0   0   0
    49    43      0   0   0
    49    50      0   0   0
    49    55      0   0   0
    49    56      0   0   0
    49    85      0   0   0
    49    91      0   0   0
    49    48      0   0  -1
    49    54      0   0  -1
    49    90      0   0  -1
    50     8      0   0   0
    50    14      0   0   0
    50    15      0   0   0
    50    43      0   0   0
    50    44      0   0   0
    50    49      0   0   0
    50    51      0   0   0
    50    56      0   0   0
    50    57      0   0   0
    50    85      0   0   0
    50    86      0   0   0
    50    92      0   0   0
    51     9      0   0   0
    51    15      0   0   0
    51    16      0   0   0
    51    44      0   0   0
    51    45      0   0   0
    51    50      0   0   0
    51    52      0   0   0
    51    57      0   0   0
    51    58      0   0   0
    51    86      0   0   0
    51    87      0   0   0
    51    93      0   0   0
    52    10      0   0   0
    52    16      0   0   0
    52    17      0   0   0
    52    45      0   0   0
    52    46      0   0   0
    52    51      0   0   0
    52    53      0   0   0
    52    58      0   0   0
    52    59      0   0   0
    52    87      0   0   0
    52    88      0   0   0
    52    94      0   0   0
    53    11      0   0   0
    53    17      0   0   0
    53    18      0   0   0
    53    46      0   0   0
    53    47      0   0   0
    53    52      0   0   0
    53    54      0   0   0
    53    59      0   0   0
    53    60      0   0   0
    53    88      0   0   0
    53    89      0   0   0
    53    95      0   0   0
    54    12      0   0   0
    54    18      0   0   0
    54    47      0   0   0
    54    48      0   0   0
    54    53      0   0   0
    54    60      0   0   0
    54    89      0   0   0
    54    90      0   0   0
    54    96      0   0   0
    54    13      0   0   1
    54    49      0   0   1
    54    55      0   0   1
    55    13      0   0   0
    55    19      0   0   0
    55    20      0   0   0
    55    49      0   0   0
    55    56      0   0   0
    55    61      0   0   0
    55    62      0   0   0
    55    91      0   0   0
    55    97      0   0   0
    55    54      0   0  -1
    55    60      0   0  -1
    55    96      0   0  -1
    56    14      0   0   0
    56    20      0   0   0
    56    21      0   0   0
    56    49      0   0   0
    56    50      0   0   0
    56    55      0   0   0
    56    57      0   0   0
    56    62      0   0   0
    56    63      0   0   0
    56    91      0   0   0
    56    92      0   0   0
    56    98      0   0   0
    57    15      0   0   0
    57    21      0   0   0
    57    22      0   0   0
    57    50      0   0   0
    57    51      0   0   0
    57    56      0   0   0
    57    58      0   0   0
    57    63      0   0   0
    57    64      0   0   0
    57    92      0   0   0
    57    93      0   0   0
    57    99      0   0   0
    58    16      0   0   0
    58    22      0   0   0
    58    23      0   0   0
    58    51      0   0   0
    58    52      0   0   0
    58    57      0   0   0
    58    59      0   0   0
    58    64      0   0   0
    58    65      0   0   0
    58    93      0   0   0
    58    94      0   0   0
    58   100      0   0   0
    59    17      0   0   0
    59    23      0   0   0
    59    24      0   0   0
    59    52      0   0   0
    59    53      0   0   0
    59    58      0   0   0
    59    60      0   0   0
    59    65      0   0   0
    59    66      0   0   0
    59    94      0   0   0
    59    95      0   0   0
    59   101      0   0   0
    60    18      0   0   0
    60    24      0   0   0
    60    53      0   0   0
    60    54      0   0   0
    60    59      0   0   0
    60    66      0   0   0
    60    95      0   0   0
    60    96      0   0   0
    60   102      0   0   0
    60    19      0   0   1
    60    55      0   0   1
    60    61      0   0   1
    61    19      0   0   0
    61    25      0   0   0
    61    26      0   0   0
    61    55      0   0   0
    61    62      0   0   0
    61    67      0   0   0
    61    68      0   0   0
    61    97      0   0   0
    61   103      0   0   0
    61    60      0   0  -1
    61    66      0   0  -1
    61   102      0   0  -1
    62    20      0   0   0
    62    26      0   0   0
    62    27      0   0   0
    62    55      0   0   0
    62    56      0   0   0
    62    61      0   0   0
    62    63      0   0   0
    62    68      0   0   0
    62    69      0   0   0
    62    97      0   0   0
    62    98      0   0   0
    62   104      0   0   0
    63    21      0   0   0
    63    27      0   0   0
    63    28      0   0   0
    63    56      0   0   0
    63    57      0   0   0
    63    62      0   0   0
    63    64      0   0   0
    63    69      0   0   0
    63    70      0   0   0
    63    98      0   0   0
    63    99      0   0   0
    63   105      0   0   0
    64    22      0   0   0
    64    28      0   0   0
    64    29      0   0   0
    64    57      0   0   0
    64    58      0   0   0
    64    63      0   0   0
    64    65      0   0   0
    64    70      0   0   0
    64    71      0   0   0
    64    99      0   0   0
    64   100      0   0   0
    64   106      0   0   0
    65    23      0   0   0
    65    29      0   0   0
    65    30      0   0   0
    65    58      0   0   0
    65    59      0   0   0
    65    64      0   0   0
    65    66      0   0   0
    65    71      0   0   0
    65    72      0   0   0
    65   100      0   0   0
    65   101      0   0   0
    65   107      0   0   0
    66    24      0   0   0
    66    30      0   0   0
    66    59      0   0   0
    66    60      0   0   0
    66    65      0   0   0
    66    72      0   0   0
    66   101      0   0   0
    66   102      0   0   0
    66   108      0   0   0
    66    25      0   0   1
    66    61      0   0   1
    66    67      0   0   1
    67    25      0   0   0
    67    31      0   0   0
    67    32      0   0   0
    67    61      0   0   0
    67    68      0   0   0
    67   103      0   0   0
    67    37      0   1   0
    67    38      0   1   0
    67    73      0   1   0
    67    66      0   0  -1
    67    72      0   0  -1
    67   108      0   0  -1
    68    26      0   0   0
    68    32      0   0   0
    68    33      0   0   0
    68    61      0   0   0
    68    62      0   0   0
    68    67      0   0   0
    68    69      0   0   0
    68   103      0   0   0
    68   104      0   0   0
    68    38      0   1   0
    68    39      0   1   0
    68    74      0   1   0
    69    27      0   0   0
    69    33      0   0   0
    69    34      0   0   0
    69    62      0   0   0
    69    63      0   0   0
    69    68      0   0   0
    69    70      0   0   0
    69   104      0   0   0
    69   105      0   0   0
    69    39      0   1   0
    69    40      0   1   0
    69    75      0   1   0
    70    28      0   0   0
    70    34      0   0   0
    70    35      0   0   0
    70    63      0   0   0
    70    64      0   0   0
    70    69      0   0   0
    70    71      0   0   0
    70   105      0   0   0
    70   106      0   0   0
    70    40      0   1   0
    70    41      0   1   0
    70    76      0   1   0
    71    29      0   0   0
    71    35      0   0   0
    71    36      0   0   0
    71    64      0   0   0
    71    65      0   0   0
    71    70      0   0   0
    71    72      0   0   0
    71   106      0   0   0
    71   107      0   0   0
    71    41      0   1   0
    71    42      0   1   0
    71    77      0   1   0
    72    30      0   0   0
    72    36      0   0   0
    72    65      0   0   0
    72    66      0   0   0
    72    71      0   0   0
    72   107      0   0   0
    72   108      0   0   0
    72    37      0   1   1
    72    42      0   1   0
    72    78      0   1   0
    72    31      0   0   1
    72    67      0   0   1
    73    37      0   0   0
    73    38      0   0   0
    73    74      0   0   0
    73    79      0   0   0
    73    80      0   0   0
    73   109      0   0   0
    73   115      0   0   0
    73    78      0   0  -1
    73   114      0   0  -1
    73    67      0  -1   0
    73   103      0  -1   0
    73   108      0  -1  -1
    74    38      0   0   0
    74    39      0   0   0
    74    73      0   0   0
    74    75      0   0   0
    74    80      0   0   0
    74    81      0   0   0
    74   109      0   0   0
    74   110      0   0   0
    74   116      0   0   0
    74    68      0  -1   0
    74   103      0  -1   0
    74   104      0  -1   0
    75    39      0   0   0
    75    40      0   0   0
    75    74      0   0   0
    75    76      0   0   0
    75    81      0   0   0
    75    82      0   0   0
    75   110      0   0   0
    75   111      0   0   0
    75   117      0   0   0
    75    69      0  -1   0
    75   104      0  -1   0
    75   105      0  -1   0
    76    40      0   0   0
    76    41      0   0   0
    76    75      0   0   0
    76    77      0   0   0
    76    82      0   0   0
    76    83      0   0   0
    76   111      0   0   0
    76   112      0   0   0
    76   118      0   0   0
    76    70      0  -1   0
    76   105      0  -1   0
    76   106      0  -1   0
    77    41      0   0   0
    77    42      0   0   0
    77    76      0   0   0
    77    78      0   0   0
    77    83      0   0   0
    77    84      0   0   0
    77   112      0   0   0
    77   113      0   0   0
    77   119      0   0   0
    77    71      0  -1   0
    77   106      0  -1   0
    77   107      0  -1   0
    78    42      0   0   0
    78    77      0   0   0
    78    84      0   0   0
    78   113      0   0   0
    78   114      0   0   0
    78   120      0   0   0
    78    37      0   0   1
    78    73      0   0   1
    78    79      0   0   1
    78    72      0  -1   0
    78   107      0  -1   0
    78   108      0  -1   0
    79    37      0   0   0
    79    43      0   0   0
    79    44      0   0   0
    79    73      0   0   0
    79    80      0   0   0
    79    85      0   0   0
    79    86      0   0   0
    79   115      0   0   0
    79   121      0   0   0
    79    78      0   0  -1
    79    84      0   0  -1
    79   120      0   0  -1
    80    38      0   0   0
    80    44      0   0   0
    80    45      0   0   0
    80    73      0   0   0
    80    74      0   0   0
    80    79      0   0   0
    80    81      0   0   0
    80    86      0   0   0
    80    87      0   0   0
    80   115      0   0   0
    80   116      0   0   0
    80   122      0   0   0
    81    39      0   0   0
    81    45      0   0   0
    81    46      0   0   0
    81    74      0   0   0
    81    75      0   0   0
    81    80      0   0   0
    81    82      0   0   0
    81    87      0   0   0
    81    88      0   0   0
    81   116      0   0   0
    81   117      0   0   0
    81   123      0   0   0
    82    40      0   0   0
    82    46      0   0   0
    82    47      0   0   0
    82    75      0   0   0
    82    76      0   0   0
    82    81      0   0   0
    82    83      0   0   0
    82    88      0   0   0
    82    89      0   0   0
    82   117      0   0   0
    82   118      0   0   0
    82   124      0   0   0
    83    41      0   0   0
    83    47      0   0   0
    83    48      0   0   0
    83    76      0   0   0
    83    77      0   0   0
    83    82      0   0   0
    83    84      0   0   0
    83    89      0   0   0
    83    90      0   0   0
    83   118      0   0   0
    83   119      0   0   0
    83   125      0   0   0
    84    42      0   0   0
    84    48      0   0   0
    84    77      0   0   0
    84    78      0   0   0
    84    83      0   0   0
    84    90      0   0   0
    84   119      0   0   0
    84   120      0   0   0
    84   126      0   0   0
    84    43      0   0   1
    84    79      0   0   1
    84    85      0   0   1
    85    43      0   0   0
    85    49      0   0   0
    85    50      0   0   0
    85    79      0   0   0
    85    86      0   0   0
    85    91      0   0   0
    85    92      0   0   0
    85   121      0   0   0
    85   127      0   0   0
    85    84      0   0  -1
    85    90      0   0  -1
    85   126      0   0  -1
    86    44      0   0   0
    86    50      0   0   0
    86    51      0   0   0
    86    79      0   0   0
    86    80      0   0   0
    86    85      0   0   0
    86    87      0   0   0
    86    92      0   0   0
    86    93      0   0   0
    86   121      0   0   0
    86   122      0   0   0
    86   128      0   0   0
    87    45      0   0   0
    87    51      0   0   0
    87    52      0   0   0
    87    80      0   0   0
    87    81      0   0   0
    87    86      0   0   0
    87    88      0   0   0
    87    93      0   0   0
    87    94      0   0   0
    87   122      0   0   0
    87   123      0   0   0
    87   129      0   0   0
    88    46      0   0   0
    88    52      0   0   0
    88    53      0   0   0
    88    81      0   0   0
    88    82      0   0   0
    88    87      0   0   0
    88    89      0   0   0
    88    94      0   0   0
    88    95      0   0   0
    88   123      0   0   0
    88   124      0   0   0
    88   130      0   0   0
    89    47      0   0   0
    89    53      0   0   0
    89    54      0   0   0
    89    82      0   0   0
    89    83      0   0   0
    89    88      0   0   0
    89    90      0   0   0
    89    95      0   0   0
    89    96      0   0   0
    89   124      0   0   0
    89   125      0   0   0
    89   131      0   0   0
    90    48      0   0   0
    90    54      0   0   0
    90    83      0   0   0
    90    84      0   0   0
    90    89      0   0   0
    90    96      0   0   0
    90   125      0   0   0
    90   126      0   0   0
    90   132      0   0   0
    90    49      0   0   1
    90    85      0   0   1
    90    91      0   0   1
    91    49      0   0   0
    91    55      0   0   0
    91    56      0   0   0
    91    85      0   0   0
    91    92      0   0   0
    91    97      0   0   0
    91    98      0   0   0
    91   127      0   0   0
    91   133      0   0   0
    91    90      0   0  -1
    91    96      0   0  -1
    91   132      0   0  -1
    92    50      0   0   0
    92    56      0   0   0
    92    57      0   0   0
    92    85      0   0   0
    92    86      0   0   0
    92    91      0   0   0
    92    93      0   0   0
    92    98      0   0   0
    92    99      0   0   0
    92   127      0   0   0
    92   128      0   0   0
    92   134      0   0   0
    93    51      0   0   0
    93    57      0   0   0
    93    58      0   0   0
    93    86      0   0   0
    93    87      0   0   0
    93    92      0   0   0
    93    94      0   0   0
    93    99      0   0   0
    93   100      0   0   0
    93   128      0   0   0
    93   129      0   0   0
    93   135      0   0   0
    94    52      0   0   0
    94    58      0   0   0
    94    59      0   0   0
    94    87      0   0   0
    94    88      0   0   0
    94    93      0   0   0
    94    95      0   0   0
    94   100      0   0   0
    94   101      0   0   0
    94   129      0   0   0
    94   130      0   0   0
    94   136      0   0   0
    95    53      0   0   0
    95    59      0   0   0
    95    60      0   0   0
    95    88      0   0   0
    95    89      0   0   0
    95    94      0   0   0
    95    96      0   0   0
    95   101      0   0   0
    95   102      0   0   0
    95   130      0   0   0
    95   131      0   0   0
    95   137      0   0   0
    96    54      0   0   0
    96    60      0   0   0
    96    89      0   0   0
    96    90      0   0   0
    96    95      0   0   0
    96   102      0   0   0
    96   131      0   0   0
    96   132      0   0   0
    96   138      0   0   0
    96    55      0   0   1
    96    91      0   0   1
    96    97      0   0   1
    97    55      0   0   0
    97    61      0   0   0
    97    62      0   0   0
    97    91      0   0   0
    97    98      0   0   0
    97   103      0   0   0
    97   104      0   0   0
    97   133      0   0   0
    97   139      0   0   0
    97    96      0   0  -1
    97   102      0   0  -1
    97   138      0   0  -1
    98    56      0   0   0
    98    62      0   0   0
    98    63      0   0   0
    98    91      0   0   0
    98    92      0   0   0
    98    97      0   0   0
    98    99      0   0   0
    98   104      0   0   0
    98   105      0   0   0
    98   133      0   0   0
    98   134      0   0   0
    98   140      0   0   0
    99    57      0   0   0
    99    63      0   0   0
    99    64      0   0   0
    99    92      0   0   0
    99    93      0   0   0
    99    98      0   0   0
    99   100      0   0   0
    99   105      0   0   0
    99   106      0   0   0
    99   134      0   0   0
    99   135      0   0   0
    99   141      0   0   0
   100    58      0   0   0
   100    64      0   0   0
   100    65      0   0   0
   100    93      0   0   0
   100    94      0   0   0
   100    99      0   0   0
   100   101      0   0   0
   100   106      0   0   0
   100   107      0   0   0
   100   135      0   0   0
   100   136      0   0   0
   100   142      0   0   0
   101    59      0   0   0
   101    65      0   0   0
   101    66      0   0   0
   101    94      0   0   0
   101    95      0   0   0
   101   100      0   0   0
   101   102      0   0   0
   101   107      0   0   0
   101   108      0   0   0
   101   136      0   0   0
   101   137      0   0   0
   101   143      0   0   0
   102    60      0   0   0
   102    66      0   0   0
   102    95      0   0   0
   102    96      0   0   0
   102   101      0   0   0
   102   108      0   0   0
   102   137      0   0   0
   102   138      0   0   0
   102   144      0   0   0
   102    61      0   0   1
   102    97      0   0   1
   102   103      0   0   1
   103    61      0   0   0
   103    67      0   0   0
   103    68      0   0   0
   103    97      0   0   0
   103   104      0   0   0
   103   139      0   0   0
   103    73      0   1   0
   103    74      0   1   0
   103   109      0   1   0
   103   102      0   0  -1
   103   108      0   0  -1
   103   144      0   0  -1
   104    62      0   0   0
   104    68      0   0   0
   104    69      0   0   0
   104    97      0   0   0
   104    98      0   0   0
   104   103      0   0   0
   104   105      0   0   0
   104   139      0   0   0
   104   140      0   0   0
   104    74      0   1   0
   104    75      0   1   0
   104   110      0   1   0
   105    63      0   0   0
   105    69      0   0   0
   105    70      0   0   0
   105    98      0   0   0
   105    99      0   0   0
   105   104      0   0   0
   105   106      0   0   0
   105   140      0   0   0
   105   141      0   0   0
   105    75      0   1   0
   105    76      0   1   0
   105   111      0   1   0
   106    64      0   0   0
   106    70      0   0   0
   106    71      0   0   0
   106    99      0   0   0
   106   100      0   0   0
   106   105      0   0   0
   106   107      0   0   0
   106   141      0   0   0
   106   142      0   0   0
   106    76      0   1   0
   106    77      0   1   0
   106   112      0   1   0
   107    65      0   0   0
   107    71      0   0   0
   107    72      0   0   0
   107   100      0   0   0
   107   101      0   0   0
   107   106      0   0   0
   107   108      0   0   0
   107   142      0   0   0
   107   143      0   0   0
   107    77      0   1   0
   107    78      0   1   0
   107   113      0   1   0
   108    66      0   0   0
   108    72      0   0   0
   108   101      0   0   0
   108   102      0   0   0
   108   107      0   0   0
   108   143      0   0   0
   108   144      0   0   0
   108    73      0   1   1
   108    78      0   1   0
   108   114      0   1   0
   108    67      0   0   1
   108   103      0   0   1
   109    73      0   0   0
   109    74      0   0   0
   109   110      0   0   0
   109   115      0   0   0
   109   116      0   0   0
   109   145      0   0   0
   109   151      0   0   0
   109   114      0   0  -1
   109   150      0   0  -1
   109   103      0  -1   0
   109   139      0  -1   0
   109   144      0  -1  -1
   110    74      0   0   0
   110    75      0   0   0
   110   109      0   0   0
   110   111      0   0   0
   110   116      0   0   0
   110   117      0   0   0
   110   145      0   0   0
   110   146      0   0   0
   110   152      0   0   0
   110   104      0  -1   0
   110   139      0  -1   0
   110   140      0  -1   0
   111    75      0   0   0
   111    76      0   0   0
   111   110      0   0   0
   111   112      0   0   0
   111   117      0   0   0
   111   118      0   0   0
   111   146      0   0   0
   111   147      0   0   0
   111   153      0   0   0
   111   105      0  -1   0
   111   140      0  -1   0
   111   141      0  -1   0
   112    76      0   0   0
   112    77      0   0   0
   112   111      0   0   0
   112   113      0   0   0
   112   118      0   0   0
   112   119      0   0   0
   112   147      0   0   0
   112   148      0   0   0
   112   154      0   0   0
   112   106      0  -1   0
   112   141      0  -1   0
   112   142      0  -1   0
   113    77      0   0   0
   113    78      0   0   0
   113   112      0   0   0
   113   114      0   0   0
   113   119      0   0   0
   113   120      0   0   0
   113   148      0   0   0
   113   149      0   0   0
   113   155      0   0   0
   113   107      0  -1   0
   113   142      0  -1   0
   113   143      0  -1   0
   114    78      0   0   0
   114   113      0   0   0
   114   120      0   0   0
   114   149      0   0   0
   114   150      0   0   0
   114   156      0   0   0
   114    73      0   0   1
   114   109      0   0   1
   114   115      0   0   1
   114   108      0  -1   0
   114   143      0  -1   0
   114   144      0  -1   0
   115    73      0   0   0
   115    79      0   0   0
   115    80      0   0   0
   115   109      0   0   0
   115   116      0   0   0
   115   121      0   0   0
   115   122      0   0   0
   115   151      0   0   0
   115   157      0   0   0
   115   114      0   0  -1
   115   120      0   0  -1
   115   156      0   0  -1
   116    74      0   0   0
   116    80      0   0   0
   116    81      0   0   0
   116   109      0   0   0
   116   110      0   0   0
   116   115      0   0   0
   116   117      0   0   0
   116   122      0   0   0
   116   123      0   0   0
   116   151      0   0   0
   116   152      0   0   0
   116   158      0   0   0
   117    75      0   0   0
   117    81      0   0   0
   117    82      0   0   0
   117   110      0   0   0
   117   111      0   0   0
   117   116      0   0   0
   117   118      0   0   0
   117   123      0   0   0
   117   124      0   0   0
   117   152      0   0   0
   117   153      0   0   0
   117   159      0   0   0
   118    76      0   0   0
   118    82      0   0   0
   118    83      0   0   0
   118   111      0   0   0
   118   112      0   0   0
   118   117      0   0   0
   118   119      0   0   0
   118   124      0   0   0
   118   125      0   0   0
   118   153      0   0   0
   118   154      0   0   0
   118   160      0   0   0
   119    77      0   0   0
   119    83      0   0   0
   119    84      0   0   0
   119   112      0   0   0
   119   113      0   0   0
   119   118      0   0   0
   119   120      0   0   0
   119   125      0   0   0
   119   126      0   0   0
   119   154      0   0   0
   119   155      0   0   0
   119   161      0   0   0
   120    78      0   0   0
   120    84      0   0   0
   120   113      0   0   0
   120   114      0   0   0
   120   119      0   0   0
   120   126      0   0   0
   120   155      0   0   0
   120   156      0   0   0
   120   162      0   0   0
   120    79      0   0   1
   120   115      0   0   1
   120   121      0   0   1
   121    79      0   0   0
   121    85      0   0   0
   121    86      0   0   0
   121   115      0   0   0
   121   122      0   0   0
   121   127      0   0   0
   121   128      0   0   0
   121   157      0   0   0
   121   163      0   0   0
   121   120      0   0  -1
   121   126      0   0  -1
   121   162      0   0  -1
   122    80      0   0   0
   122    86      0   0   0
   122    87      0   0   0
   122   115      0   0   0
   122   116      0   0   0
   122   121      0   0   0
   122   123      0   0   0
   122   128      0   0   0
   122   129      0   0   0
   122   157      0   0   0
   122   158      0   0   0
   122   164      0   0   0
   123    81      0   0   0
   123    87      0   0   0
   123    88      0   0   0
   123   116      0   0   0
   123   117      0   0   0
   123   122      0   0   0
   123   124      0   0   0
   123   129      0   0   0
   123   130      0   0   0
   123   158      0   0   0
   123   159      0   0   0
   123   165      0   0   0
   124    82      0   0   0
   124    88      0   0   0
   124    89      0   0   0
   124   117      0   0   0
   124   118      0   0   0
   124   123      0   0   0
   124   125      0   0   0
   124   130      0   0   0
   124   131      0   0   0
   124   159      0   0   0
   124   160      0   0   0
   124   166      0   0   0
   125    83      0   0   0
   125    89      0   0   0
   125    90      0   0   0
   125   118      0   0   0
   125   119      0   0   0
   125   124      0   0   0
   125   126      0   0   0
   125   131      0   0   0
   125   132      0   0   0
   125   160      0   0   0
   125   161      0   0   0
   125   167      0   0   0
   126    84      0   0   0
   126    90      0   0   0
   126   119      0   0   0
   126   120      0   0   0
   126   125      0   0   0
   126   132      0   0   0
   126   161      0   0   0
   126   162      0   0   0
   126   168      0   0   0
   126    85      0   0   1
   126   121      0   0   1
   126   127      0   0   1
   127    85      0   0   0
   127    91      0   0   0
   127    92      0   0   0
   127   121      0   0   0
   127   128      0   0   0
   127   133      0   0   0
   127   134      0   0   0
   127   163      0   0   0
   127   169      0   0   0
   127   126      0   0  -1
   127   132      0   0  -1
   127   168      0   0  -1
   128    86      0   0   0
   128    92      0   0   0
   128    93      0   0   0
   128   121      0   0   0
   128   122      0   0   0
   128   127      0   0   0
   128   129      0   0   0
   128   134      0   0   0
   128   135      0   0   0
   128   163      0   0   0
   128   164      0   0   0
   128   170      0   0   0
   129    87      0   0   0
   129    93      0   0   0
   129    94      0   0   0
   129   122      0   0   0
   129   123      0   0   0
   129   128      0   0   0
   129   130      0   0   0
   129   135      0   0   0
   129   136      0   0   0
   129   164      0   0   0
   129   165      0   0   0
   129   171      0   0   0
   130    88      0   0   0
   130    94      0   0   0
   130    95      0   0   0
   130   123      0   0   0
   130   124      0   0   0
   130   129      0   0   0
   130   131      0   0   0
   130   136      0   0   0
   130   137      0   0   0
   130   165      0   0   0
   130   166      0   0   0
   130   172      0   0   0
   131    89      0   0   0
   131    95      0   0   0
   131    96      0   0   0
   131   124      0   0   0
   131   125      0   0   0
   131   130      0   0   0
   131   132      0   0   0
   131   137      0   0   0
   131   138      0   0   0
   131   166      0   0   0
   131   167      0   0   0
   131   173      0   0   0
   132    90      0   0   0
   132    96      0   0   0
   132   125      0   0   0
   132   126      0   0   0
   132   131      0   0   0
   132   138      0   0   0
   132   167      0   0   0
   132   168      0   0   0
   132   174      0   0   0
   132    91      0   0   1
   132   127      0   0   1
   132   133      0   0   1
   133    91      0   0   0
   133    97      0   0   0
   133    98      0   0   0
   133   127      0   0   0
   133   134      0   0   0
   133   139      0   0   0
   133   140      0   0   0
   133   169      0   0   0
   133   175      0   0   0
   133   132      0   0  -1
   133   138      0   0  -1
   133   174      0   0  -1
   134    92      0   0   0
   134    98      0   0   0
   134    99      0   0   0
   134   127      0   0   0
   134   128      0   0   0
   134   133      0   0   0
   134   135      0   0   0
   134   140      0   0   0
   134   141      0   0   0
   134   169      0   0   0
   134   170      0   0   0
   134   176      0   0   0
   135    93      0   0   0
   135    99      0   0   0
   135   100      0   0   0
   135   128      0   0   0
   135   129      0   0   0
   135   134      0   0   0
   135   136      0   0   0
   135   141      0   0   0
   135   142      0   0   0
   135   170      0   0   0
   135   171      0   0   0
   135   177      0   0   0
   136    94      0   0   0
   136   100      0   0   0
   136   101      0   0   0
   136   129      0   0   0
   136   130      0   0   0
   136   135      0   0   0
   136   137      0   0   0
   136   142      0   0   0
   136   143      0   0   0
   136   171      0   0   0
   136   172      0   0   0
   136   178      0   0   0
   137    95      0   0   0
   137   101      0   0   0
   137   102      0   0   0
   137   130      0   0   0
   137   131      0   0   0
   137   136      0   0   0
   137   138      0   0   0
   137   143      0   0   0
   137   144      0   0   0
   137   172      0   0   0
   137   173      0   0   0
   137   179      0   0   0
   138    96      0   0   0
   138   102      0   0   0
   138   131      0   0   0
   138   132      0   0   0
   138   137      0   0   0
   138   144      0   0   0
   138   173      0   0   0
   138   174      0   0   0
   138   180      0   0   0
   138    97      0   0   1
   138   133      0   0   1
   138   139      0   0   1
   139    97      0   0   0
   139   103      0   0   0
   139   104      0   0   0
   139   133      0   0   0
   139   140      0   0   0
   139   175      0   0   0
   139   109      0   1   0
   139   110      0   1   0
   139   145      0   1   0
   139   138      0   0  -1
   139   144      0   0  -1
   139   180      0   0  -1
   140    98      0   0   0
   140   104      0   0   0
   140   105      0   0   0
   140   133      0   0   0
   140   134      0   0   0
   140   139      0   0   0
   140   141      0   0   0
   140   175      0   0   0
   140   176      0   0   0
   140   110      0   1   0
   140   111      0   1   0
   140   146      0   1   0
   141    99      0   0   0
   141   105      0   0   0
   141   106      0   0   0
   141   134      0   0   0
   141   135      0   0   0
   141   140      0   0   0
   141   142      0   0   0
   141   176      0   0   0
   141   177      0   0   0
   141   111      0   1   0
   141   112      0   1   0
   141   147      0   1   0
   142   100      0   0   0
   142   106      0   0   0
   142   107      0   0   0
   142   135      0   0   0
   142   136      0   0   0
   142   141      0   0   0
   142   143      0   0   0
   142   177      0   0   0
   142   178      0   0   0
   142   112      0   1   0
   142   113      0   1   0
   142   148      0   1   0
   143   101      0   0   0
   143   107      0   0   0
   143   108      0   0   0
   143   136      0   0   0
   143   137      0   0   0
   143   142      0   0   0
   143   144      0   0   0
   143   178      0   0   0
   143   179      0   0   0
   143   113      0   1   0
   143   114      0   1   0
   143   149      0   1   0
   144   102      0   0   0
   144   108      0   0   0
   144   137      0   0   0
   144   138      0   0   0
   144   143      0   0   0
   144   179      0   0   0
   144   180      0   0   0
   144   109      0   1   1
   144   114      0   1   0
   144   150      0   1   0
   144   103      0   0   1
   144   139      0   0   1
   145   109      0   0   0
   145   110      0   0   0
   145   146      0   0   0
   145   151      0   0   0
   145   152      0   0   0
   145   181      0   0   0
   145   187      0   0   0
   145   150      0   0  -1
   145   186      0   0  -1
   145   139      0  -1   0
   145   175      0  -1   0
   145   180      0  -1  -1
   146   110      0   0   0
   146   111      0   0   0
   146   145      0   0   0
   146   147      0   0   0
   146   152      0   0   0
   146   153      0   0   0
   146   181      0   0   0
   146   182      0   0   0
   146   188      0   0   0
   146   140      0  -1   0
   146   175      0  -1   0
   146   176      0  -1   0
   147   111      0   0   0
   147   112      0   0   0
   147   146      0   0   0
   147   148      0   0   0
   147   153      0   0   0
   147   154      0   0   0
   147   182      0   0   0
   147   183      0   0   0
   147   189      0   0   0
   147   141      0  -1   0
   147   176      0  -1   0
   147   177      0  -1   0
   148   112      0   0   0
   148   113      0   0   0
   148   147      0   0   0
   148   149      0   0   0
   148   154      0   0   0
   148   155      0   0   0
   148   183      0   0   0
   148   184      0   0   0
   148   190      0   0   0
   148   142      0  -1   0
   148   177      0  -1   0
   148   178      0  -1   0
   149   113      0   0   0
   149   114      0   0   0
   149   148      0   0   0
   149   150      0   0   0
   149   155      0   0   0
   149   156      0   0   0
   149   184      0   0   0
   149   185      0   0   0
   149   191      0   0   0
   149   143      0  -1   0
   149   178      0  -1   0
   149   179      0  -1   0
   150   114      0   0   0
   150   149      0   0   0
   150   156      0   0   0
   150   185      0   0   0
   150   186      0   0   0
   150   192      0   0   0
   150   109      0   0   1
   150   145      0   0   1
   150   151      0   0   1
   150   144      0  -1   0
   150   179      0  -1   0
   150   180      0  -1   0
   151   109      0   0   0
   151   115      0   0   0
   151   116      0   0   0
   151   145      0   0   0
   151   152      0   0   0
   151   157      0   0   0
   151   158      0   0   0
   151   187      0   0   0
   151   193      0   0   0
   151   150      0   0  -1
   151   156      0   0  -1
   151   192      0   0  -1
   152   110      0   0   0
   152   116      0   0   0
   152   117      0   0   0
   152   145      0   0   0
   152   146      0   0   0
   152   151      0   0   0
   152   153      0   0   0
   152   158      0   0   0
   152   159      0   0   0
   152   187      0   0   0
   152   188      0   0   0
   152   194      0   0   0
   153   111      0   0   0
   153   117      0   0   0
   153   118      0   0   0
   153   146      0   0   0
   153   147      0   0   0
   153   152      0   0   0
   153   154      0   0   0
   153   159      0   0   0
   153   160      0   0   0
   153   188      0   0   0
   153   189      0   0   0
   153   195      0   0   0
   154   112      0   0   0
   154   118      0   0   0
   154   119      0   0   0
   154   147      0   0   0
   154   148      0   0   0
   154   153      0   0   0
   154   155      0   0   0
   154   160      0   0   0
   154   161      0   0   0
   154   189      0   0   0
   154   190      0   0   0
   154   196      0   0   0
   155   113      0   0   0
   155   119      0   0   0
   155   120      0   0   0
   155   148      0   0   0
   155   149      0   0   0
   155   154      0   0   0
   155   156      0   0   0
   155   161      0   0   0
   155   162      0   0   0
   155   190      0   0   0
   155   191      0   0   0
   155   197      0   0   0
   156   114      0   0   0
   156   120      0   0   0
   156   149      0   0   0
   156   150      0   0   0
   156   155      0   0   0
   156   162      0   0   0
   156   191      0   0   0
   156   192      0   0   0
   156   198      0   0   0
   156   115      0   0   1
   156   151      0   0   1
   156   157      0   0   1
   157   115      0   0   0
   157   121      0   0   0
   157   122      0   0   0
   157   151      0   0   0
   157   158      0   0   0
   157   163      0   0   0
   157   164      0   0   0
   157   193      0   0   0
   157   199      0   0   0
   157   156      0   0  -1
   157   162      0   0  -1
   157   198      0   0  -1
   158   116      0   0   0
   158   122      0   0   0
   158   123      0   0   0
   158   151      0   0   0
   158   152      0   0   0
   158   157      0   0   0
   158   159      0   0   0
   158   164      0   0   0
   158   165      0   0   0
   158   193      0   0   0
   158   194      0   0   0
   158   200      0   0   0
   159   117      0   0   0
   159   123      0   0   0
   159   124      0   0   0
   159   152      0   0   0
   159   153      0   0   0
   159   158      0   0   0
   159   160      0   0   0
   159   165      0   0   0
   159   166      0   0   0
   159   194      0   0   0
   159   195      0   0   0
   159   201      0   0   0
   160   118      0   0   0
   160   124      0   0   0
   160   125      0   0   0
   160   153      0   0   0
   160   154      0   0   0
   160   159      0   0   0
   160   161      0   0   0
   160   166      0   0   0
   160   167      0   0   0
   160   195      0   0   0
   160   196      0   0   0
   160   202      0   0   0
   161   119      0   0   0
   161   125      0   0   0
   161   126      0   0   0
   161   154      0   0   0
   161   155      0   0   0
   161   160      0   0   0
   161   162      0   0   0
   161   167      0   0   0
   161   168      0   0   0
   161   196      0   0   0
   161   197      0   0   0
   161   203      0   0   0
   162   120      0   0   0
   162   126      0   0   0
   162   155      0   0   0
   162   156      0   0   0
   162   161      0   0   0
   162   168      0   0   0
   162   197      0   0   0
   162   198      0   0   0
   162   204      0   0   0
   162   121      0   0   1
   162   157      0   0   1
   162   163      0   0   1
   163   121      0   0   0
   163   127      0   0   0
   163   128      0   0   0
   163   157      0   0   0
   163   164      0   0   0
   163   169      0   0   0
   163   170      0   0   0
   163   199      0   0   0
   163   205      0   0   0
   163   162      0   0  -1
   163   168      0   0  -1
   163   204      0   0  -1
   164   122      0   0   0
   164   128      0   0   0
   164   129      0   0   0
   164   157      0   0   0
   164   158      0   0   0
   164   163      0   0   0
   164   165      0   0   0
   164   170      0   0   0
   164   171      0   0   0
   164   199      0   0   0
   164   200      0   0   0
   164   206      0   0   0
   165   123      0   0   0
   165   129      0   0   0
   165   130      0   0   0
   165   158      0   0   0
   165   159      0   0   0
   165   164      0   0   0
   165   166      0   0   0
   165   171      0   0   0
   165   172      0   0   0
   165   200      0   0   0
   165   201      0   0   0
   165   207      0   0   0
   166   124      0   0   0
   166   130      0   0   0
   166   131      0   0   0
   166   159      0   0   0
   166   160      0   0   0
   166   165      0   0   0
   166   167      0   0   0
   166   172      0   0   0
   166   173      0   0   0
   166   201      0   0   0
   166   202      0   0   0
   166   208      0   0   0
   167   125      0   0   0
   167   131      0   0   0
   167   132      0   0   0
   167   160      0   0   0
   167   161      0   0   0
   167   166      0   0   0
   167   168      0   0   0
   167   173      0   0   0
   167   174      0   0   0
   167   202      0   0   0
   167   203      0   0   0
   167   209      0   0   0
   168   126      0   0   0
   168   132      0   0   0
   168   161      0   0   0
   168   162      0   0   0
   168   167      0   0   0
   168   174      0   0   0
   168   203      0   0   0
   168   204      0   0   0
   168   210      0   0   0
   168   127      0   0   1
   168   163      0   0   1
   168   169      0   0   1
   169   127      0   0   0
   169   133      0   0   0
   169   134      0   0   0
   169   163      0   0   0
   169   170      0   0   0
   169   175      0   0   0
   169   176      0   0   0
   169   205      0   0   0
   169   211      0   0   0
   169   168      0   0  -1
   169   174      0   0  -1
   169   210      0   0  -1
   170   128      0   0   0
   170   134      0   0   0
   170   135      0   0   0
   170   163      0   0   0
   170   164      0   0   0
   170   169      0   0   0
   170   171      0   0   0
   170   176      0   0   0
   170   177      0   0   0
   170   205      0   0   0
   170   206      0   0   0
   170   212      0   0   0
   171   129      0   0   0
   171   135      0   0   0
   171   136      0   0   0
   171   164      0   0   0
   171   165      0   0   0
   171   170      0   0   0
   171   172      0   0   0
   171   177      0   0   0
   171   178      0   0   0
   171   206      0   0   0
   171   207      0   0   0
   171   213      0   0   0
   172   130      0   0   0
   172   136      0   0   0
   172   137      0   0   0
   172   165      0   0   0
   172   166      0   0   0
   172   171      0   0   0
   172   173      0   0   0
   172   178      0   0   0
   172   179      0   0   0
   172   207      0   0   0
   172   208      0   0   0
   172   214      0   0   0
   173   131      0   0   0
   173   137      0   0   0
   173   138      0   0   0
   173   166      0   0   0
   173   167      0   0   0
   173   172      0   0   0
   173   174      0   0   0
   173   179      0   0   0
   173   180      0   0   0
   173   208      0   0   0
   173   209      0   0   0
   173   215      0   0   0
   174   132      0   0   0
   174   138      0   0   0
   174   167      0   0   0
   174   168      0   0   0
   174   173      0   0   0
   174   180      0   0   0
   174   209      0   0   0
   174   210      0   0   0
   174   216      0   0   0
   174   133      0   0   1
   174   169      0   0   1
   174   175      0   0   1
   175   133      0   0   0
   175   139      0   0   0
   175   140      0   0   0
   175   169      0   0   0
   175   176      0   0   0
   175   211      0   0   0
   175   145      0   1   0
   175   146      0   1   0
   175   181      0   1   0
   175   174      0   0  -1
   175   180      0   0  -1
   175   216      0   0  -1
   176   134      0   0   0
   176   140      0   0   0
   176   141      0   0   0
   176   169      0   0   0
   176   170      0   0   0
   176   175      0   0   0
   176   177      0   0   0
   176   211      0   0   0
   176   212      0   0   0
   176   146      0   1   0
   176   147      0   1   0
   176   182      0   1   0
   177   135      0   0   0
   177   141      0   0   0
   177   142      0   0   0
   177   170      0   0   0
   177   171      0   0   0
   177   176      0   0   0
   177   178      0   0   0
   177   212      0   0   0
   177   213      0   0   0
   177   147      0   1   0
   177   148      0   1   0
   177   183      0   1   0
   178   136      0   0   0
   178   142      0   0   0
   178   143      0   0   0
   178   171      0   0   0
   178   172      0   0   0
   178   177      0   0   0
   178   179      0   0   0
   178   213      0   0   0
   178   214      0   0   0
   178   148      0   1   0
   178   149      0   1   0
   178   184      0   1   0
   179   137      0   0   0
   179   143      0   0   0
   179   144      0   0   0
   179   172      0   0   0
   179   173      0   0   0
   179   178      0   0   0
   179   180      0   0   0
   179   214      0   0   0
   179   215      0   0   0
   179   149      0   1   0
   179   150      0   1   0
   179   185      0   1   0
   180   138      0   0   0
   180   144      0   0   0
   180   173      0   0   0
   180   174      0   0   0
   180   179      0   0   0
   180   215      0   0   0
   180   216      0   0   0
   180   145      0   1   1
   180   150      0   1   0
   180   186      0   1   0
   180   139      0   0   1
   180   175      0   0   1
   181   145      0   0   0
   181   146      0   0   0
   181   182      0   0   0
   181   187      0   0   0
   181   188      0   0   0
   181     1      1   0   0
   181     7      1   0   0
   181     6      1   0  -1
   181   186      0   0  -1
   181   175      0  -1   0
   181   211      0  -1   0
   181   216      0  -1  -1
   182   146      0   0   0
   182   147      0   0   0
   182   181      0   0   0
   182   183      0   0   0
   182   188      0   0   0
   182   189      0   0   0
   182     1      1   0   0
   182     2      1   0   0
   182     8      1   0   0
   182   176      0  -1   0
   182   211      0  -1   0
   182   212      0  -1   0
   183   147      0   0   0
   183   148      0   0   0
   183   182      0   0   0
   183   184      0   0   0
   183   189      0   0   0
   183   190      0   0   0
   183     2      1   0   0
   183     3      1   0   0
   183     9      1   0   0
   183   177      0  -1   0
   183   212      0  -1   0
   183   213      0  -1   0
   184   148      0   0   0
   184   149      0   0   0
   184   183      0   0   0
   184   185      0   0   0
   184   190      0   0   0
   184   191      0   0   0
   184     3      1   0   0
   184     4      1   0   0
   184    10      1   0   0
   184   178      0  -1   0
   184   213      0  -1   0
   184   214      0  -1   0
   185   149      0   0   0
   185   150      0   0   0
   185   184      0   0   0
   185   186      0   0   0
   185   191      0   0   0
   185   192      0   0   0
   185     4      1   0   0
   185     5      1   0   0
   185    11      1   0   0
   185   179      0  -1   0
   185   214      0  -1   0
   185   215      0  -1   0
   186   150      0   0   0
   186   185      0   0   0
   186   192      0   0   0
   186     5      1   0   0
   186     6      1   0   0
   186    12      1   0   0
   186   145      0   0   1
   186   181      0   0   1
   186   187      0   0   1
   186   180      0  -1   0
   186   215      0  -1   0
   186   216      0  -1   0
   187   145      0   0   0
   187   151      0   0   0
   187   152      0   0   0
   187   181      0   0   0
   187   188      0   0   0
   187   193      0   0   0
   187   194      0   0   0
   187     7      1   0   0
   187    13      1   0   0
   187    12      1   0  -1
   187   186      0   0  -1
   187   192      0   0  -1
   188   146      0   0   0
   188   152      0   0   0
   188   153      0   0   0
   188   181      0   0   0
   188   182      0   0   0
   188   187      0   0   0
   188   189      0   0   0
   188   194      0   0   0
   188   195      0   0   0
   188     7      1   0   0
   188     8      1   0   0
   188    14      1   0   0
   189   147      0   0   0
   189   153      0   0   0
   189   154      0   0   0
   189   182      0   0   0
   189   183      0   0   0
   189   188      0   0   0
   189   190      0   0   0
   189   195      0   0   0
   189   196      0   0   0
   189     8      1   0   0
   189     9      1   0   0
   189    15      1   0   0
   190   148      0   0   0
   190   154      0   0   0
   190   155      0   0   0
   190   183      0   0   0
   190   184      0   0   0
   190   189      0   0   0
   190   191      0   0   0
   190   196      0   0   0
   190   197      0   0   0
   190     9      1   0   0
   190    10      1   0   0
   190    16      1   0   0
   191   149      0   0   0
   191   155      0   0   0
   191   156      0   0   0
   191   184      0   0   0
   191   185      0   0   0
   191   190      0   0   0
   191   192      0   0   0
   191   197      0   0   0
   191   198      0   0   0
   191    10      1   0   0
   191    11      1   0   0
   191    17      1   0   0
   192   150      0   0   0
   192   156      0   0   0
   192   185      0   0   0
   192   186      0   0   0
   192   191      0   0   0
   192   198      0   0   0
   192    11      1   0   0
   192    12      1   0   0
   192    18      1   0   0
   192   151      0   0   1
   192   187      0   0   1
   192   193      0   0   1
   193   151      0   0   0
   193   157      0   0   0
   193   158      0   0   0
   193   187      0   0   0
   193   194      0   0   0
   193   199      0   0   0
   193   200      0   0   0
   193    13      1   0   0
   193    19      1   0   0
   193    18      1   0  -1
   193   192      0   0  -1
   193   198      0   0  -1
   194   152      0   0   0
   194   158      0   0   0
   194   159      0   0   0
   194   187      0   0   0
   194   188      0   0   0
   194   193      0   0   0
   194   195      0   0   0
   194   200      0   0   0
   194   201      0   0   0
   194    13      1   0   0
   194    14      1   0   0
   194    20      1   0   0
   195   153      0   0   0
   195   159      0   0   0
   195   160      0   0   0
   195   188      0   0   0
   195   189      0   0   0
   195   194      0   0   0
   195   196      0   0   0
   195   201      0   0   0
   195   202      0   0   0
   195    14      1   0   0
   195    15      1   0   0
   195    21      1   0   0
   196   154      0   0   0
   196   160      0   0   0
   196   161      0   0   0
   196   189      0   0   0
   196   190      0   0   0
   196   195      0   0   0
   196   197      0   0   0
   196   202      0   0   0
   196   203      0   0   0
   196    15      1   0   0
   196    16      1   0   0
   196    22      1   0   0
   197   155      0   0   0
   197   161      0   0   0
   197   162      0   0   0
   197   190      0   0   0
   197   191      0   0   0
   197   196      0   0   0
   197   198      0   0   0
   197   203      0   0   0
   197   204      0   0   0
   197    16      1   0   0
   197    17      1   0   0
   197    23      1   0   0
   198   156      0   0   0
   198   162      0   0   0
   198   191      0   0   0
   198   192      0   0   0
   198   197      0   0   0
   198   204      0   0   0
   198    17      1   0   0
   198    18      1   0   0
   198    24      1   0   0
   198   157      0   0   1
   198   193      0   0   1
   198   199      0   0   1
   199   157      0   0   0
   199   163      0   0   0
   199   164      0   0   0
   199   193      0   0   0
   199   200      0   0   0
   199   205      0   0   0
   199   206      0   0   0
   199    19      1   0   0
   199    25      1   0   0
   199    24      1   0  -1
   199   198      0   0  -1
   199   204      0   0  -1
   200   158      0   0   0
   200   164      0   0   0
   200   165      0   0   0
   200   193      0   0   0
   200   194      0   0   0
   200   199      0   0   0
   200   201      0   0   0
   200   206      0   0   0
   200   207      0   0   0
   200    19      1   0   0
   200    20      1   0   0
   200    26      1   0   0
   201   159      0   0   0
   201   165      0   0   0
   201   166      0   0   0
   201   194      0   0   0
   201   195      0   0   0
   201   200      0   0   0
   201   202      0   0   0
   201   207      0   0   0
   201   208      0   0   0
   201    20      1   0   0
   201    21      1   0   0
   201    27      1   0   0
   202   160      0   0   0
   202   166      0   0   0
   202   167      0   0   0
   202   195      0   0   0
   202   196      0   0   0
   202   201      0   0   0
   202   203      0   0   0
   202   208      0   0   0
   202   209      0   0   0
   202    21      1   0   0
   202    22      1   0   0
   202    28      1   0   0
   203   161      0   0   0
   203   167      0   0   0
   203   168      0   0   0
   203   196      0   0   0
   203   197      0   0   0
   203   202      0   0   0
   203   204      0   0   0
   203   209      0   0   0
   203   210      0   0   0
   203    22      1   0   0
   203    23      1   0   0
   203    29      1   0   0
   204   162      0   0   0
   204   168      0   0   0
   204   197      0   0   0
   204   198      0   0   0
   204   203      0   0   0
   204   210      0   0   0
   204    23      1   0   0
   204    24      1   0   0
   204    30      1   0   0
   204   163      0   0   1
   204   199      0   0   1
   204   205      0   0   1
   205   163      0   0   0
   205   169      0   0   0
   205   170      0   0   0
   205   199      0   0   0
   205   206      0   0   0
   205   211      0   0   0
   205   212      0   0   0
   205    25      1   0   0
   205    31      1   0   0
   205    30      1   0  -1
   205   204      0   0  -1
   205   210      0   0  -1
   206   164      0   0   0
   206   170      0   0   0
   206   171      0   0   0
   206   199      0   0   0
   206   200      0   0   0
   206   205      0   0   0
   206   207      0   0   0
   206   212      0   0   0
   206   213      0   0   0
   206    25      1   0   0
   206    26      1   0   0
   206    32      1   0   0
   207   165      0   0   0
   207   171      0   0   0
   207   172      0   0   0
   207   200      0   0   0
   207   201      0   0   0
   207   206      0   0   0
   207   208      0   0   0
   207   213      0   0   0
   207   214      0   0   0
   207    26      1   0   0
   207    27      1   0   0
   207    33      1   0   0
   208   166      0   0   0
   208   172      0   0   0
   208   173      0   0   0
   208   201      0   0   0
   208   202      0   0   0
   208   207      0   0   0
   208   209      0   0   0
   208   214      0   0   0
   208   215      0   0   0
   208    27      1   0   0
   208    28      1   0   0
   208    34      1   0   0
   209   167      0   0   0
   209   173      0   0   0
   209   174      0   0   0
   209   202      0   0   0
   209   203      0   0   0
   209   208      0   0   0
   209   210      0   0   0
   209   215      0   0   0
   209   216      0   0   0
   209    28      1   0   0
   209    29      1   0   0
   209    35      1   0   0
   210   168      0   0   0
   210   174      0   0   0
   210   203      0   0   0
   210   204      0   0   0
   210   209      0   0   0
   210   216      0   0   0
   210    29      1   0   0
   210    30      1   0   0
   210    36      1   0   0
   210   169      0   0   1
   210   205      0   0   1
   210   211      0   0   1
   211   169      0   0   0
   211   175      0   0   0
   211   176      0   0   0
   211   205      0   0   0
   211   212      0   0   0
   211     1      1   1   0
   211    31      1   0   0
   211    36      1   0  -1
   211   181      0   1   0
   211   182      0   1   0
   211   210      0   0  -1
   211   216      0   0  -1
   212   170      0   0   0
   212   176      0   0   0
   212   177      0   0   0
   212   205      0   0   0
   212   206      0   0   0
   212   211      0   0   0
   212   213      0   0   0
   212     2      1   1   0
   212    31      1   0   0
   212    32      1   0   0
   212   182      0   1   0
   212   183      0   1   0
   213   171      0   0   0
   213   177      0   0   0
   213   178      0   0   0
   213   206      0   0   0
   213   207      0   0   0
   213   212      0   0   0
   213   214      0   0   0
   213     3      1   1   0
   213    32      1   0   0
   213    33      1   0   0
   213   183      0   1   0
   213   184      0   1   0
   214   172      0   0   0
   214   178      0   0   0
   214   179      0   0   0
   214   207      0   0   0
   214   208      0   0   0
   214   213      0   0   0
   214   215      0   0   0
   214     4      1   1   0
   214    33      1   0   0
   214    34      1   0   0
   214   184      0   1   0
   214   185      0   1   0
   215   173      0   0   0
   215   179      0   0   0
   215   180      0   0   0
   215   208      0   0   0
   215   209      0   0   0
   215   214      0   0   0
   215   216      0   0   0
   215     5      1   1   0
   215    34      1   0   0
   215    35      1   0   0
   215   185      0   1   0
   215   186      0   1   0
   216   174      0   0   0
   216   180      0   0   0
   216   209      0   0   0
   216   210      0   0   0
   216   215      0   0   0
   216     6      1   1   0
   216    35      1   0   0
   216    36      1   0   0
   216   181      0   1   1
   216   186      0   1   0
   216   175      0   0   1
   216   211      0   0   1
end nnkpts

begin exclude_bands
   0
end exclude_bands
