 written on  3Nov2020 at 23:39:23 
           4
         259
    2    2    2    1    2    2    2    2    2    2    1    1    2    2    1
    1    1    1    2    2    1    1    1    1    2    2    1    1    2    2
    2    2    1    2    2    1    1    1    1    2    1    1    1    1    1
    1    2    1    1    1    1    1    2    1    1    1    1    1    1    2
    1    1    1    1    2    2    1    2    2    2    2    1    1    1    1
    2    2    1    1    1    1    1    2    1    1    1    1    1    1    1
    1    1    1    1    1    2    1    1    1    1    1    2    2    1    1
    1    1    2    2    2    2    1    1    2    1    1    1    1    1    1
    1    1    1    1    1    1    2    1    1    1    1    1    2    1    1
    1    1    1    1    1    1    1    1    1    1    2    1    1    2    2
    2    2    1    1    1    1    2    2    1    1    1    1    1    2    1
    1    1    1    1    1    1    1    1    1    1    1    2    1    1    1
    1    1    2    2    1    1    1    1    2    2    2    2    1    2    2
    1    1    1    1    2    1    1    1    1    1    1    2    1    1    1
    1    1    2    1    1    1    1    1    1    2    1    1    1    1    2
    2    1    2    2    2    2    1    1    2    2    1    1    1    1    2
    2    1    1    1    1    2    2    1    1    2    2    2    2    2    2
    1    2    2    2
   -4    1   -3    1    1    0.070262    0.000223
   -4    1   -3    2    1   -0.010942    0.019416
   -4    1   -3    3    1   -0.007604   -0.028647
   -4    1   -3    4    1   -0.016393    0.014558
   -4    1   -3    1    2   -0.033063   -0.042886
   -4    1   -3    2    2    0.032268   -0.016722
   -4    1   -3    3    2    0.014022   -0.022441
   -4    1   -3    4    2   -0.003638    0.017255
   -4    1   -3    1    3    0.020978   -0.039265
   -4    1   -3    2    3    0.006246    0.005366
   -4    1   -3    3    3   -0.003546   -0.009270
   -4    1   -3    4    3   -0.027647   -0.024513
   -4    1   -3    1    4   -0.019172   -0.007971
   -4    1   -3    2    4    0.003549   -0.015066
   -4    1   -3    3    4   -0.006464   -0.005381
   -4    1   -3    4    4   -0.020051    0.018945
   -4    1   -2    1    1    0.143812   -0.000019
   -4    1   -2    2    1    0.012901   -0.004792
   -4    1   -2    3    1    0.033804    0.015648
   -4    1   -2    4    1   -0.020521    0.001175
   -4    1   -2    1    2    0.009520   -0.017748
   -4    1   -2    2    2   -0.006461    0.025746
   -4    1   -2    3    2   -0.013739    0.019856
   -4    1   -2    4    2   -0.022935   -0.061549
   -4    1   -2    1    3   -0.010399    0.008691
   -4    1   -2    2    3   -0.018354    0.042954
   -4    1   -2    3    3    0.055296   -0.003188
   -4    1   -2    4    3    0.034523   -0.023513
   -4    1   -2    1    4   -0.017443   -0.024965
   -4    1   -2    2    4   -0.011004    0.013318
   -4    1   -2    3    4   -0.049661    0.046562
   -4    1   -2    4    4   -0.031074   -0.028933
   -4    2   -3    1    1    0.117286   -0.010874
   -4    2   -3    2    1   -0.010939   -0.019640
   -4    2   -3    3    1   -0.005907    0.009437
   -4    2   -3    4    1    0.021891    0.006574
   -4    2   -3    1    2    0.000835    0.037904
   -4    2   -3    2    2   -0.012892    0.005604
   -4    2   -3    3    2   -0.001098   -0.038077
   -4    2   -3    4    2    0.004975   -0.004511
   -4    2   -3    1    3   -0.001644   -0.010191
   -4    2   -3    2    3   -0.015698    0.029297
   -4    2   -3    3    3    0.080929   -0.000616
   -4    2   -3    4    3    0.006925    0.036816
   -4    2   -3    1    4   -0.033579    0.021283
   -4    2   -3    2    4    0.020040    0.036279
   -4    2   -3    3    4    0.019566   -0.003647
   -4    2   -3    4    4   -0.022728    0.013130
   -4    2   -2    1    1    0.045484    0.021408
   -4    2   -2    2    1   -0.040662   -0.005109
   -4    2   -2    3    1    0.005168    0.018124
   -4    2   -2    4    1   -0.018195   -0.040647
   -4    2   -2    1    2    0.027042   -0.005319
   -4    2   -2    2    2    0.029044   -0.006748
   -4    2   -2    3    2    0.044070   -0.035548
   -4    2   -2    4    2   -0.026778   -0.017283
   -4    2   -2    1    3   -0.017521    0.015651
   -4    2   -2    2    3    0.045243    0.018944
   -4    2   -2    3    3    0.045912    0.019898
   -4    2   -2    4    3   -0.015546   -0.023482
   -4    2   -2    1    4    0.036101   -0.012420
   -4    2   -2    2    4   -0.011865    0.015335
   -4    2   -2    3    4    0.000369    0.012010
   -4    2   -2    4    4   -0.058606   -0.027713
   -4    2   -1    1    1    0.092457    0.000204
   -4    2   -1    2    1   -0.027732    0.030798
   -4    2   -1    3    1   -0.002064    0.021601
   -4    2   -1    4    1   -0.018731    0.004311
   -4    2   -1    1    2    0.036235    0.028395
   -4    2   -1    2    2    0.046374   -0.006735
   -4    2   -1    3    2   -0.002520   -0.024304
   -4    2   -1    4    2    0.011836    0.062437
   -4    2   -1    1    3    0.023879    0.045702
   -4    2   -1    2    3    0.010767    0.032922
   -4    2   -1    3    3    0.004565   -0.007556
   -4    2   -1    4    3   -0.042085    0.016947
   -4    2   -1    1    4    0.014987    0.016751
   -4    2   -1    2    4    0.020030   -0.023884
   -4    2   -1    3    4   -0.029451   -0.008586
   -4    2   -1    4    4    0.019641    0.015119
   -4    3   -2    1    1    0.117808    0.006160
   -4    3   -2    2    1    0.005718   -0.024355
   -4    3   -2    3    1   -0.033351    0.032798
   -4    3   -2    4    1   -0.035606    0.005616
   -4    3   -2    1    2   -0.008402   -0.007000
   -4    3   -2    2    2    0.019803    0.017459
   -4    3   -2    3    2    0.020755   -0.009923
   -4    3   -2    4    2   -0.010117   -0.015061
   -4    3   -2    1    3   -0.015986    0.021149
   -4    3   -2    2    3    0.003307    0.035162
   -4    3   -2    3    3    0.012369   -0.023079
   -4    3   -2    4    3    0.030677    0.009773
   -4    3   -2    1    4    0.006687   -0.018749
   -4    3   -2    2    4   -0.010366   -0.002396
   -4    3   -2    3    4   -0.021518   -0.014627
   -4    3   -2    4    4    0.011052   -0.012652
   -4    3   -1    1    1    0.096873   -0.009201
   -4    3   -1    2    1    0.018683   -0.004628
   -4    3   -1    3    1   -0.031120   -0.004311
   -4    3   -1    4    1    0.011750   -0.023028
   -4    3   -1    1    2   -0.014698    0.025893
   -4    3   -1    2    2   -0.027571   -0.016537
   -4    3   -1    3    2   -0.006152   -0.005484
   -4    3   -1    4    2   -0.002558   -0.030422
   -4    3   -1    1    3   -0.007677    0.009735
   -4    3   -1    2    3    0.005631   -0.011452
   -4    3   -1    3    3    0.051160   -0.004805
   -4    3   -1    4    3    0.010589   -0.041096
   -4    3   -1    1    4   -0.010169   -0.005874
   -4    3   -1    2    4   -0.006456    0.044205
   -4    3   -1    3    4    0.024052    0.029858
   -4    3   -1    4    4   -0.050987    0.018149
   -3   -1   -2    1    1    0.065648   -0.008658
   -3   -1   -2    2    1   -0.013728    0.017672
   -3   -1   -2    3    1    0.041014    0.022318
   -3   -1   -2    4    1   -0.064575    0.037306
   -3   -1   -2    1    2    0.012586    0.014330
   -3   -1   -2    2    2    0.023571   -0.015990
   -3   -1   -2    3    2   -0.028370   -0.029366
   -3   -1   -2    4    2    0.003116    0.003233
   -3   -1   -2    1    3    0.016274   -0.037464
   -3   -1   -2    2    3   -0.042828    0.033106
   -3   -1   -2    3    3    0.009294    0.003580
   -3   -1   -2    4    3   -0.033108    0.010610
   -3   -1   -2    1    4   -0.001337    0.020330
   -3   -1   -2    2    4    0.002167    0.026229
   -3   -1   -2    3    4   -0.003274    0.010018
   -3   -1   -2    4    4   -0.019375    0.015813
   -3   -1   -1    1    1    0.139556    0.013354
   -3   -1   -1    2    1   -0.039185    0.030045
   -3   -1   -1    3    1    0.002210    0.002075
   -3   -1   -1    4    1   -0.013872   -0.008969
   -3   -1   -1    1    2    0.036537   -0.016147
   -3   -1   -1    2    2   -0.023313    0.000610
   -3   -1   -1    3    2   -0.019137    0.008837
   -3   -1   -1    4    2   -0.008251    0.020890
   -3   -1   -1    1    3   -0.037591   -0.006546
   -3   -1   -1    2    3    0.000390   -0.021267
   -3   -1   -1    3    3   -0.037348    0.008081
   -3   -1   -1    4    3    0.022033   -0.008016
   -3   -1   -1    1    4   -0.013382   -0.020741
   -3   -1   -1    2    4   -0.028973    0.002018
   -3   -1   -1    3    4   -0.039123    0.031795
   -3   -1   -1    4    4    0.081928   -0.026179
   -3    0   -3    1    1    0.094397    0.000000
   -3    0   -3    2    1   -0.033392   -0.032656
   -3    0   -3    3    1   -0.007702   -0.014139
   -3    0   -3    4    1    0.017191   -0.010073
   -3    0   -3    1    2   -0.033392    0.032656
   -3    0   -3    2    2   -0.012110    0.000000
   -3    0   -3    3    2    0.002248   -0.009051
   -3    0   -3    4    2    0.035578   -0.013530
   -3    0   -3    1    3   -0.007702    0.014139
   -3    0   -3    2    3    0.002248    0.009051
   -3    0   -3    3    3    0.033123   -0.000000
   -3    0   -3    4    3    0.011925    0.007055
   -3    0   -3    1    4    0.017191    0.010073
   -3    0   -3    2    4    0.035578    0.013530
   -3    0   -3    3    4    0.011925   -0.007055
   -3    0   -3    4    4    0.054481   -0.000000
   -3    0   -2    1    1    0.085338   -0.020585
   -3    0   -2    2    1    0.007514    0.017392
   -3    0   -2    3    1    0.016678    0.002355
   -3    0   -2    4    1    0.027823   -0.000066
   -3    0   -2    1    2   -0.018063   -0.015685
   -3    0   -2    2    2    0.024565   -0.012202
   -3    0   -2    3    2   -0.030049   -0.000399
   -3    0   -2    4    2    0.009383   -0.006617
   -3    0   -2    1    3   -0.045031   -0.001550
   -3    0   -2    2    3   -0.008661    0.015524
   -3    0   -2    3    3   -0.016312    0.029338
   -3    0   -2    4    3   -0.008846   -0.024260
   -3    0   -2    1    4   -0.010558    0.009677
   -3    0   -2    2    4    0.005412   -0.020698
   -3    0   -2    3    4    0.021679   -0.030473
   -3    0   -2    4    4   -0.065317    0.006572
   -3    0   -1    1    1    0.170413   -0.014413
   -3    0   -1    2    1   -0.042659   -0.042560
   -3    0   -1    3    1    0.001728   -0.015977
   -3    0   -1    4    1   -0.014836   -0.006388
   -3    0   -1    1    2    0.036028    0.080249
   -3    0   -1    2    2   -0.003877   -0.023316
   -3    0   -1    3    2    0.007145    0.034627
   -3    0   -1    4    2   -0.062454   -0.039417
   -3    0   -1    1    3   -0.019715    0.039995
   -3    0   -1    2    3   -0.005040   -0.025529
   -3    0   -1    3    3   -0.022365    0.034252
   -3    0   -1    4    3   -0.058679   -0.066932
   -3    0   -1    1    4    0.056439    0.038496
   -3    0   -1    2    4   -0.015045    0.007649
   -3    0   -1    3    4    0.004581    0.008873
   -3    0   -1    4    4   -0.025357    0.004330
   -3    0    0    1    1   -0.056436    0.000000
   -3    0    0    2    1    0.007251    0.003309
   -3    0    0    3    1   -0.011199   -0.014338
   -3    0    0    4    1    0.035282   -0.018568
   -3    0    0    1    2    0.007251   -0.003309
   -3    0    0    2    2   -0.015132   -0.000000
   -3    0    0    3    2    0.010815    0.002160
   -3    0    0    4    2    0.005693    0.045777
   -3    0    0    1    3   -0.011199    0.014338
   -3    0    0    2    3    0.010815   -0.002160
   -3    0    0    3    3   -0.031846    0.000000
   -3    0    0    4    3   -0.001728    0.045345
   -3    0    0    1    4    0.035282    0.018568
   -3    0    0    2    4    0.005693   -0.045777
   -3    0    0    3    4   -0.001728   -0.045345
   -3    0    0    4    4    0.031702    0.000000
   -3    1   -4    1    1    0.065648    0.008658
   -3    1   -4    2    1    0.012586   -0.014330
   -3    1   -4    3    1    0.016274    0.037464
   -3    1   -4    4    1   -0.001337   -0.020330
   -3    1   -4    1    2   -0.013728   -0.017672
   -3    1   -4    2    2    0.023571    0.015990
   -3    1   -4    3    2   -0.042828   -0.033106
   -3    1   -4    4    2    0.002167   -0.026229
   -3    1   -4    1    3    0.041014   -0.022318
   -3    1   -4    2    3   -0.028370    0.029366
   -3    1   -4    3    3    0.009294   -0.003580
   -3    1   -4    4    3   -0.003274   -0.010018
   -3    1   -4    1    4   -0.064575   -0.037306
   -3    1   -4    2    4    0.003116   -0.003233
   -3    1   -4    3    4   -0.033108   -0.010610
   -3    1   -4    4    4   -0.019375   -0.015813
   -3    1   -3    1    1    0.090545   -0.014657
   -3    1   -3    2    1   -0.032554    0.002588
   -3    1   -3    3    1   -0.013627    0.001264
   -3    1   -3    4    1   -0.001857    0.036841
   -3    1   -3    1    2   -0.013232    0.028596
   -3    1   -3    2    2   -0.027842   -0.018205
   -3    1   -3    3    2   -0.021324    0.023892
   -3    1   -3    4    2   -0.047462   -0.016418
   -3    1   -3    1    3   -0.036172   -0.017212
   -3    1   -3    2    3   -0.018892   -0.006596
   -3    1   -3    3    3   -0.037362   -0.018187
   -3    1   -3    4    3   -0.035388    0.003044
   -3    1   -3    1    4   -0.018174    0.016029
   -3    1   -3    2    4    0.013160    0.008771
   -3    1   -3    3    4   -0.014468    0.010054
   -3    1   -3    4    4    0.009114    0.054435
   -3    1   -2    1    1    0.132161    0.024806
   -3    1   -2    2    1    0.030516   -0.029474
   -3    1   -2    3    1    0.059041   -0.044996
   -3    1   -2    4    1    0.027468   -0.015954
   -3    1   -2    1    2    0.031139    0.011205
   -3    1   -2    2    2   -0.020579    0.002139
   -3    1   -2    3    2   -0.014000    0.000511
   -3    1   -2    4    2    0.028088   -0.008172
   -3    1   -2    1    3    0.050204   -0.014238
   -3    1   -2    2    3    0.015214   -0.018865
   -3    1   -2    3    3    0.007204   -0.049157
   -3    1   -2    4    3    0.010983    0.040293
   -3    1   -2    1    4   -0.009636   -0.072508
   -3    1   -2    2    4   -0.022627    0.071104
   -3    1   -2    3    4   -0.005899    0.020606
   -3    1   -2    4    4   -0.003410    0.022993
   -3    1   -1    1    1    0.057104   -0.015197
   -3    1   -1    2    1   -0.036390    0.041801
   -3    1   -1    3    1    0.010900   -0.027933
   -3    1   -1    4    1   -0.014480    0.013033
   -3    1   -1    1    2    0.035663    0.020760
   -3    1   -1    2    2    0.003191   -0.026674
   -3    1   -1    3    2    0.063693   -0.029462
   -3    1   -1    4    2    0.001063    0.044842
   -3    1   -1    1    3   -0.065430   -0.008576
   -3    1   -1    2    3    0.021625   -0.000664
   -3    1   -1    3    3    0.033725    0.002937
   -3    1   -1    4    3   -0.000140    0.023674
   -3    1   -1    1    4    0.048416    0.026728
   -3    1   -1    2    4   -0.012928    0.006562
   -3    1   -1    3    4    0.047927    0.024178
   -3    1   -1    4    4    0.016464    0.036143
   -3    1    0    1    1    0.104266    0.032585
   -3    1    0    2    1    0.051367    0.003628
   -3    1    0    3    1    0.008895   -0.006310
   -3    1    0    4    1    0.010067    0.010775
   -3    1    0    1    2    0.011417   -0.021493
   -3    1    0    2    2   -0.015251   -0.001796
   -3    1    0    3    2   -0.008609    0.019973
   -3    1    0    4    2    0.010931   -0.029117
   -3    1    0    1    3    0.035893    0.020499
   -3    1    0    2    3    0.017418   -0.010908
   -3    1    0    3    3    0.047753    0.009750
   -3    1    0    4    3    0.055788   -0.008920
   -3    1    0    1    4   -0.029554   -0.029652
   -3    1    0    2    4   -0.026334   -0.004436
   -3    1    0    3    4   -0.003202    0.013569
   -3    1    0    4    4   -0.004113   -0.041241
   -3    1    1    1    1    0.139556   -0.013354
   -3    1    1    2    1    0.036537    0.016147
   -3    1    1    3    1   -0.037591    0.006546
   -3    1    1    4    1   -0.013382    0.020741
   -3    1    1    1    2   -0.039185   -0.030045
   -3    1    1    2    2   -0.023313   -0.000610
   -3    1    1    3    2    0.000390    0.021267
   -3    1    1    4    2   -0.028973   -0.002018
   -3    1    1    1    3    0.002210   -0.002075
   -3    1    1    2    3   -0.019137   -0.008837
   -3    1    1    3    3   -0.037348   -0.008081
   -3    1    1    4    3   -0.039123   -0.031795
   -3    1    1    1    4   -0.013872    0.008969
   -3    1    1    2    4   -0.008251   -0.020890
   -3    1    1    3    4    0.022033    0.008016
   -3    1    1    4    4    0.081928    0.026179
   -3    2   -4    1    1    0.127685    0.016652
   -3    2   -4    2    1   -0.036678   -0.035724
   -3    2   -4    3    1   -0.061280   -0.031344
   -3    2   -4    4    1    0.051978   -0.017605
   -3    2   -4    1    2    0.018613   -0.023635
   -3    2   -4    2    2    0.011367   -0.005218
   -3    2   -4    3    2   -0.020042   -0.006189
   -3    2   -4    4    2    0.029599    0.030207
   -3    2   -4    1    3    0.037227   -0.003940
   -3    2   -4    2    3   -0.036737    0.007190
   -3    2   -4    3    3    0.009971    0.036385
   -3    2   -4    4    3   -0.009795    0.032422
   -3    2   -4    1    4   -0.020367   -0.053113
   -3    2   -4    2    4   -0.017906    0.020713
   -3    2   -4    3    4    0.002331    0.010295
   -3    2   -4    4    4    0.012417   -0.052664
   -3    2   -3    1    1    0.136773   -0.013247
   -3    2   -3    2    1   -0.057575   -0.010593
   -3    2   -3    3    1    0.004457   -0.014179
   -3    2   -3    4    1    0.015595   -0.006691
   -3    2   -3    1    2    0.034237   -0.036476
   -3    2   -3    2    2   -0.008756   -0.008422
   -3    2   -3    3    2   -0.009912    0.042128
   -3    2   -3    4    2    0.022491   -0.009844
   -3    2   -3    1    3    0.054950   -0.017226
   -3    2   -3    2    3   -0.011971   -0.026687
   -3    2   -3    3    3   -0.037356    0.023122
   -3    2   -3    4    3    0.026408   -0.012224
   -3    2   -3    1    4   -0.067148   -0.037153
   -3    2   -3    2    4    0.007100   -0.013790
   -3    2   -3    3    4    0.012432    0.001536
   -3    2   -3    4    4    0.048433   -0.012770
   -3    2   -2    1    1    0.078040    0.002857
   -3    2   -2    2    1    0.033167    0.034379
   -3    2   -2    3    1    0.051131   -0.036012
   -3    2   -2    4    1   -0.042101    0.033618
   -3    2   -2    1    2   -0.033661    0.006139
   -3    2   -2    2    2    0.001459    0.018884
   -3    2   -2    3    2    0.004270   -0.016635
   -3    2   -2    4    2   -0.010419   -0.009973
   -3    2   -2    1    3   -0.102080    0.040393
   -3    2   -2    2    3    0.038626    0.043311
   -3    2   -2    3    3    0.032947   -0.043361
   -3    2   -2    4    3   -0.013095   -0.047086
   -3    2   -2    1    4    0.047935    0.026307
   -3    2   -2    2    4    0.019924   -0.007521
   -3    2   -2    3    4   -0.030113   -0.004540
   -3    2   -2    4    4    0.001041    0.005444
   -3    2   -1    1    1    0.142953   -0.017659
   -3    2   -1    2    1    0.024054    0.013809
   -3    2   -1    3    1    0.019986    0.051953
   -3    2   -1    4    1   -0.043692    0.012879
   -3    2   -1    1    2   -0.016776    0.054052
   -3    2   -1    2    2   -0.027877    0.008291
   -3    2   -1    3    2    0.002302    0.013136
   -3    2   -1    4    2    0.000619   -0.000887
   -3    2   -1    1    3    0.014166    0.008040
   -3    2   -1    2    3    0.016386   -0.005624
   -3    2   -1    3    3   -0.039782    0.015019
   -3    2   -1    4    3   -0.012934    0.060891
   -3    2   -1    1    4   -0.018670    0.033954
   -3    2   -1    2    4    0.011815   -0.008061
   -3    2   -1    3    4   -0.001848   -0.030067
   -3    2   -1    4    4    0.046069   -0.008010
   -3    2    0    1    1    0.107628    0.012245
   -3    2    0    2    1   -0.001854   -0.010320
   -3    2    0    3    1   -0.023161    0.033144
   -3    2    0    4    1   -0.024142   -0.013994
   -3    2    0    1    2   -0.043359   -0.018518
   -3    2    0    2    2   -0.001188    0.008283
   -3    2    0    3    2    0.011230   -0.005829
   -3    2    0    4    2    0.030364    0.000380
   -3    2    0    1    3   -0.008825   -0.039527
   -3    2    0    2    3    0.012337   -0.005233
   -3    2    0    3    3   -0.015344   -0.012830
   -3    2    0    4    3    0.024522   -0.038793
   -3    2    0    1    4   -0.050867    0.011972
   -3    2    0    2    4    0.013377    0.006598
   -3    2    0    3    4    0.003270    0.058651
   -3    2    0    4    4   -0.058905    0.004433
   -3    2    1    1    1    0.099210   -0.000531
   -3    2    1    2    1   -0.004311    0.001228
   -3    2    1    3    1    0.000848    0.034443
   -3    2    1    4    1   -0.054990   -0.006536
   -3    2    1    1    2    0.010461   -0.003216
   -3    2    1    2    2    0.003803   -0.007300
   -3    2    1    3    2   -0.013372   -0.017527
   -3    2    1    4    2    0.002228   -0.035013
   -3    2    1    1    3    0.002517   -0.037848
   -3    2    1    2    3   -0.001150    0.015063
   -3    2    1    3    3    0.033195    0.010297
   -3    2    1    4    3    0.011770    0.019286
   -3    2    1    1    4    0.029525   -0.028179
   -3    2    1    2    4   -0.032449    0.037706
   -3    2    1    3    4   -0.017803    0.009151
   -3    2    1    4    4   -0.059775    0.001017
   -3    3   -3    1    1    0.070633    0.000000
   -3    3   -3    2    1   -0.006467   -0.000091
   -3    3   -3    3    1    0.010086    0.017824
   -3    3   -3    4    1   -0.005271    0.025921
   -3    3   -3    1    2   -0.006467    0.000091
   -3    3   -3    2    2   -0.038476   -0.000000
   -3    3   -3    3    2    0.020969    0.038787
   -3    3   -3    4    2   -0.048023   -0.013691
   -3    3   -3    1    3    0.010086   -0.017824
   -3    3   -3    2    3    0.020969   -0.038787
   -3    3   -3    3    3   -0.140613   -0.000000
   -3    3   -3    4    3   -0.011398   -0.005002
   -3    3   -3    1    4   -0.005271   -0.025921
   -3    3   -3    2    4   -0.048023    0.013691
   -3    3   -3    3    4   -0.011398    0.005002
   -3    3   -3    4    4    0.031372   -0.000000
   -3    3   -2    1    1    0.091881    0.008839
   -3    3   -2    2    1   -0.049777    0.019801
   -3    3   -2    3    1   -0.018951    0.009165
   -3    3   -2    4    1   -0.040799   -0.018212
   -3    3   -2    1    2    0.001643    0.027664
   -3    3   -2    2    2    0.008252   -0.012719
   -3    3   -2    3    2   -0.020409   -0.032379
   -3    3   -2    4    2    0.035149    0.023041
   -3    3   -2    1    3    0.014018   -0.008472
   -3    3   -2    2    3    0.010013    0.017140
   -3    3   -2    3    3    0.069734   -0.028090
   -3    3   -2    4    3   -0.013326   -0.001723
   -3    3   -2    1    4    0.018555    0.035131
   -3    3   -2    2    4    0.014985    0.014244
   -3    3   -2    3    4    0.017095   -0.006225
   -3    3   -2    4    4   -0.047313    0.044550
   -3    3   -1    1    1    0.095148   -0.002312
   -3    3   -1    2    1   -0.011111    0.028994
   -3    3   -1    3    1    0.028116    0.013304
   -3    3   -1    4    1    0.028551    0.007781
   -3    3   -1    1    2    0.024289   -0.023543
   -3    3   -1    2    2    0.015765    0.012195
   -3    3   -1    3    2   -0.003132    0.015061
   -3    3   -1    4    2   -0.035499    0.027627
   -3    3   -1    1    3    0.028164    0.027914
   -3    3   -1    2    3   -0.019816   -0.004742
   -3    3   -1    3    3   -0.048842    0.013616
   -3    3   -1    4    3    0.033115   -0.015262
   -3    3   -1    1    4   -0.005429    0.013008
   -3    3   -1    2    4    0.000274    0.007090
   -3    3   -1    3    4    0.021564    0.023238
   -3    3   -1    4    4   -0.035842   -0.013392
   -3    3    0    1    1    0.063276   -0.000000
   -3    3    0    2    1    0.003878    0.018506
   -3    3    0    3    1   -0.026681    0.042955
   -3    3    0    4    1   -0.044227   -0.021517
   -3    3    0    1    2    0.003878   -0.018506
   -3    3    0    2    2    0.055454    0.000000
   -3    3    0    3    2   -0.014858    0.004802
   -3    3    0    4    2    0.024676    0.025699
   -3    3    0    1    3   -0.026681   -0.042955
   -3    3    0    2    3   -0.014858   -0.004802
   -3    3    0    3    3   -0.044491   -0.000000
   -3    3    0    4    3    0.004039   -0.027495
   -3    3    0    1    4   -0.044227    0.021517
   -3    3    0    2    4    0.024676   -0.025699
   -3    3    0    3    4    0.004039    0.027495
   -3    3    0    4    4    0.105507    0.000000
   -3    4   -2    1    1    0.127685   -0.016652
   -3    4   -2    2    1    0.018613    0.023635
   -3    4   -2    3    1    0.037227    0.003940
   -3    4   -2    4    1   -0.020367    0.053113
   -3    4   -2    1    2   -0.036678    0.035724
   -3    4   -2    2    2    0.011367    0.005218
   -3    4   -2    3    2   -0.036737   -0.007190
   -3    4   -2    4    2   -0.017906   -0.020713
   -3    4   -2    1    3   -0.061280    0.031344
   -3    4   -2    2    3   -0.020042    0.006189
   -3    4   -2    3    3    0.009971   -0.036385
   -3    4   -2    4    3    0.002331   -0.010295
   -3    4   -2    1    4    0.051978    0.017605
   -3    4   -2    2    4    0.029599   -0.030207
   -3    4   -2    3    4   -0.009795   -0.032422
   -3    4   -2    4    4    0.012417    0.052664
   -3    4   -1    1    1    0.099210    0.000531
   -3    4   -1    2    1    0.010461    0.003216
   -3    4   -1    3    1    0.002517    0.037848
   -3    4   -1    4    1    0.029525    0.028179
   -3    4   -1    1    2   -0.004311   -0.001228
   -3    4   -1    2    2    0.003803    0.007300
   -3    4   -1    3    2   -0.001150   -0.015063
   -3    4   -1    4    2   -0.032449   -0.037706
   -3    4   -1    1    3    0.000848   -0.034444
   -3    4   -1    2    3   -0.013372    0.017527
   -3    4   -1    3    3    0.033195   -0.010297
   -3    4   -1    4    3   -0.017803   -0.009151
   -3    4   -1    1    4   -0.054990    0.006536
   -3    4   -1    2    4    0.002228    0.035013
   -3    4   -1    3    4    0.011770   -0.019286
   -3    4   -1    4    4   -0.059775   -0.001017
   -2   -2   -1    1    1    0.118850    0.028850
   -2   -2   -1    2    1    0.002591    0.015071
   -2   -2   -1    3    1    0.055752    0.009600
   -2   -2   -1    4    1   -0.045821    0.035175
   -2   -2   -1    1    2    0.007837   -0.035141
   -2   -2   -1    2    2   -0.032753    0.001526
   -2   -2   -1    3    2    0.014330    0.023997
   -2   -2   -1    4    2   -0.011872    0.008472
   -2   -2   -1    1    3   -0.004251   -0.054150
   -2   -2   -1    2    3    0.014684   -0.026448
   -2   -2   -1    3    3   -0.008112    0.014891
   -2   -2   -1    4    3   -0.013028    0.030086
   -2   -2   -1    1    4    0.000131   -0.001030
   -2   -2   -1    2    4    0.017781   -0.015869
   -2   -2   -1    3    4   -0.014151   -0.027382
   -2   -2   -1    4    4    0.084592   -0.037354
   -2   -2    0    1    1    0.085858   -0.018095
   -2   -2    0    2    1    0.018788    0.034308
   -2   -2    0    3    1   -0.028249    0.001505
   -2   -2    0    4    1   -0.024398    0.018039
   -2   -2    0    1    2    0.037707   -0.003535
   -2   -2    0    2    2    0.007939    0.001970
   -2   -2    0    3    2   -0.026618    0.012532
   -2   -2    0    4    2    0.042038    0.021348
   -2   -2    0    1    3   -0.017459    0.026659
   -2   -2    0    2    3    0.004447   -0.013874
   -2   -2    0    3    3   -0.069194    0.018175
   -2   -2    0    4    3   -0.002557   -0.012033
   -2   -2    0    1    4   -0.006694   -0.008608
   -2   -2    0    2    4    0.024184   -0.024940
   -2   -2    0    3    4    0.010991    0.027546
   -2   -2    0    4    4    0.037978    0.003564
   -2   -2    1    1    1    0.092457   -0.000204
   -2   -2    1    2    1    0.036235   -0.028395
   -2   -2    1    3    1    0.023879   -0.045702
   -2   -2    1    4    1    0.014987   -0.016751
   -2   -2    1    1    2   -0.027732   -0.030798
   -2   -2    1    2    2    0.046374    0.006735
   -2   -2    1    3    2    0.010767   -0.032922
   -2   -2    1    4    2    0.020030    0.023884
   -2   -2    1    1    3   -0.002064   -0.021601
   -2   -2    1    2    3   -0.002520    0.024304
   -2   -2    1    3    3    0.004565    0.007556
   -2   -2    1    4    3   -0.029451    0.008586
   -2   -2    1    1    4   -0.018731   -0.004311
   -2   -2    1    2    4    0.011836   -0.062437
   -2   -2    1    3    4   -0.042085   -0.016947
   -2   -2    1    4    4    0.019641   -0.015119
   -2   -1   -3    1    1    0.070262   -0.000223
   -2   -1   -3    2    1   -0.033063    0.042886
   -2   -1   -3    3    1    0.020978    0.039265
   -2   -1   -3    4    1   -0.019172    0.007971
   -2   -1   -3    1    2   -0.010942   -0.019416
   -2   -1   -3    2    2    0.032268    0.016722
   -2   -1   -3    3    2    0.006246   -0.005366
   -2   -1   -3    4    2    0.003549    0.015066
   -2   -1   -3    1    3   -0.007604    0.028647
   -2   -1   -3    2    3    0.014022    0.022441
   -2   -1   -3    3    3   -0.003546    0.009270
   -2   -1   -3    4    3   -0.006464    0.005381
   -2   -1   -3    1    4   -0.016393   -0.014558
   -2   -1   -3    2    4   -0.003638   -0.017255
   -2   -1   -3    3    4   -0.027647    0.024513
   -2   -1   -3    4    4   -0.020051   -0.018945
   -2   -1   -2    1    1    0.143581   -0.004999
   -2   -1   -2    2    1    0.008163   -0.002294
   -2   -1   -2    3    1    0.023755    0.021793
   -2   -1   -2    4    1   -0.007924    0.027528
   -2   -1   -2    1    2    0.011002    0.011531
   -2   -1   -2    2    2   -0.017370   -0.001703
   -2   -1   -2    3    2    0.004827    0.017809
   -2   -1   -2    4    2   -0.054196   -0.013180
   -2   -1   -2    1    3   -0.009620   -0.030271
   -2   -1   -2    2    3    0.024899   -0.013027
   -2   -1   -2    3    3   -0.066044   -0.008941
   -2   -1   -2    4    3   -0.011229   -0.002391
   -2   -1   -2    1    4   -0.013298    0.009768
   -2   -1   -2    2    4   -0.006411   -0.000206
   -2   -1   -2    3    4    0.012411    0.033464
   -2   -1   -2    4    4   -0.025572    0.017946
   -2   -1   -1    1    1    0.107991   -0.052462
   -2   -1   -1    2    1    0.018729    0.063957
   -2   -1   -1    3    1    0.030943    0.023750
   -2   -1   -1    4    1   -0.007084    0.076069
   -2   -1   -1    1    2   -0.054939   -0.007554
   -2   -1   -1    2    2   -0.021853    0.039926
   -2   -1   -1    3    2   -0.014114    0.073415
   -2   -1   -1    4    2    0.014313    0.009527
   -2   -1   -1    1    3   -0.040959   -0.027127
   -2   -1   -1    2    3    0.014288   -0.026928
   -2   -1   -1    3    3   -0.021573   -0.031549
   -2   -1   -1    4    3    0.033497    0.046887
   -2   -1   -1    1    4   -0.057601   -0.003066
   -2   -1   -1    2    4    0.034023    0.019856
   -2   -1   -1    3    4   -0.001736    0.008868
   -2   -1   -1    4    4    0.050674    0.042273
   -2   -1    0    1    1    0.025062    0.010466
   -2   -1    0    2    1    0.004266   -0.052662
   -2   -1    0    3    1    0.028227   -0.026373
   -2   -1    0    4    1    0.036155    0.012422
   -2   -1    0    1    2    0.001628    0.004235
   -2   -1    0    2    2    0.018778   -0.004284
   -2   -1    0    3    2    0.023316   -0.020881
   -2   -1    0    4    2    0.028078    0.037315
   -2   -1    0    1    3    0.040565   -0.005448
   -2   -1    0    2    3   -0.009553   -0.008310
   -2   -1    0    3    3    0.050568   -0.014018
   -2   -1    0    4    3    0.021436    0.019248
   -2   -1    0    1    4   -0.019384    0.048096
   -2   -1    0    2    4    0.038296   -0.018879
   -2   -1    0    3    4    0.060680   -0.002387
   -2   -1    0    4    4    0.016024    0.005366
   -2   -1    1    1    1    0.092154    0.039868
   -2   -1    1    2    1   -0.014427    0.002428
   -2   -1    1    3    1   -0.030680   -0.007674
   -2   -1    1    4    1    0.011568   -0.038071
   -2   -1    1    1    2   -0.047978    0.028620
   -2   -1    1    2    2    0.028797    0.004873
   -2   -1    1    3    2   -0.023081   -0.011409
   -2   -1    1    4    2    0.042721    0.000187
   -2   -1    1    1    3   -0.037394    0.001913
   -2   -1    1    2    3   -0.009977    0.009315
   -2   -1    1    3    3   -0.033310    0.001338
   -2   -1    1    4    3    0.051717   -0.019775
   -2   -1    1    1    4    0.017695   -0.018418
   -2   -1    1    2    4   -0.013576    0.000623
   -2   -1    1    3    4   -0.009232    0.021517
   -2   -1    1    4    4    0.044317   -0.047140
   -2   -1    2    1    1    0.143812    0.000019
   -2   -1    2    2    1    0.009520    0.017748
   -2   -1    2    3    1   -0.010399   -0.008691
   -2   -1    2    4    1   -0.017443    0.024966
   -2   -1    2    1    2    0.012901    0.004792
   -2   -1    2    2    2   -0.006461   -0.025746
   -2   -1    2    3    2   -0.018354   -0.042954
   -2   -1    2    4    2   -0.011004   -0.013318
   -2   -1    2    1    3    0.033804   -0.015648
   -2   -1    2    2    3   -0.013739   -0.019856
   -2   -1    2    3    3    0.055296    0.003188
   -2   -1    2    4    3   -0.049661   -0.046562
   -2   -1    2    1    4   -0.020521   -0.001175
   -2   -1    2    2    4   -0.022935    0.061549
   -2   -1    2    3    4    0.034523    0.023513
   -2   -1    2    4    4   -0.031074    0.028933
   -2    0   -3    1    1    0.129319   -0.022859
   -2    0   -3    2    1   -0.046012   -0.028527
   -2    0   -3    3    1    0.014416   -0.010245
   -2    0   -3    4    1   -0.005102    0.037393
   -2    0   -3    1    2    0.049347    0.034572
   -2    0   -3    2    2   -0.057276   -0.016153
   -2    0   -3    3    2    0.021672   -0.027265
   -2    0   -3    4    2    0.003945    0.010465
   -2    0   -3    1    3    0.043132   -0.001158
   -2    0   -3    2    3    0.000146   -0.052230
   -2    0   -3    3    3   -0.012608   -0.008984
   -2    0   -3    4    3   -0.034846   -0.034325
   -2    0   -3    1    4   -0.040021   -0.022579
   -2    0   -3    2    4    0.003738    0.004501
   -2    0   -3    3    4   -0.010764   -0.042151
   -2    0   -3    4    4   -0.017905    0.045210
   -2    0   -2    1    1   -0.054709    0.036121
   -2    0   -2    2    1    0.206255    0.019072
   -2    0   -2    3    1    0.044782    0.015723
   -2    0   -2    4    1    0.005503   -0.026335
   -2    0   -2    1    2   -0.170627    0.040548
   -2    0   -2    2    2    0.111638    0.036181
   -2    0   -2    3    2    0.062075    0.048163
   -2    0   -2    4    2   -0.032160   -0.034779
   -2    0   -2    1    3   -0.005952    0.029133
   -2    0   -2    2    3   -0.059696   -0.003450
   -2    0   -2    3    3   -0.062754    0.036529
   -2    0   -2    4    3   -0.007396   -0.057387
   -2    0   -2    1    4   -0.004290   -0.055295
   -2    0   -2    2    4    0.000586    0.007448
   -2    0   -2    3    4   -0.049989    0.009074
   -2    0   -2    4    4   -0.071011   -0.109758
   -2    0   -1    1    1    0.305224    0.004178
   -2    0   -1    2    1   -0.308079   -0.094659
   -2    0   -1    3    1   -0.164035    0.005249
   -2    0   -1    4    1   -0.080691   -0.045511
   -2    0   -1    1    2    0.291671    0.046004
   -2    0   -1    2    2   -0.282197   -0.126111
   -2    0   -1    3    2   -0.222381    0.014168
   -2    0   -1    4    2   -0.138302   -0.028081
   -2    0   -1    1    3    0.100292    0.082287
   -2    0   -1    2    3   -0.098569   -0.116637
   -2    0   -1    3    3    0.018464    0.020491
   -2    0   -1    4    3   -0.165745   -0.048816
   -2    0   -1    1    4    0.144441   -0.047792
   -2    0   -1    2    4   -0.188452    0.051725
   -2    0   -1    3    4   -0.085065   -0.097716
   -2    0   -1    4    4    0.055892    0.093923
   -2    0    0    1    1   -0.033135    0.026411
   -2    0    0    2    1    0.074173    0.094114
   -2    0    0    3    1    0.116647    0.047782
   -2    0    0    4    1    0.097814   -0.047255
   -2    0    0    1    2   -0.002840   -0.083287
   -2    0    0    2    2   -0.000459    0.022743
   -2    0    0    3    2   -0.007392    0.028875
   -2    0    0    4    2    0.004818    0.026506
   -2    0    0    1    3   -0.102517    0.055276
   -2    0    0    2    3    0.056197    0.054435
   -2    0    0    3    3    0.117992   -0.008581
   -2    0    0    4    3   -0.022706   -0.053550
   -2    0    0    1    4   -0.087240   -0.041736
   -2    0    0    2    4    0.009386    0.010363
   -2    0    0    3    4   -0.017327    0.024650
   -2    0    0    4    4    0.040593   -0.031471
   -2    0    1    1    1    0.160368   -0.008760
   -2    0    1    2    1    0.057202    0.000898
   -2    0    1    3    1   -0.039710   -0.017314
   -2    0    1    4    1   -0.034999   -0.022220
   -2    0    1    1    2   -0.043109    0.020401
   -2    0    1    2    2    0.025676   -0.010486
   -2    0    1    3    2   -0.000612   -0.013588
   -2    0    1    4    2    0.023564   -0.053505
   -2    0    1    1    3    0.035904    0.032379
   -2    0    1    2    3   -0.009570   -0.038298
   -2    0    1    3    3   -0.039679    0.034531
   -2    0    1    4    3   -0.007167   -0.067154
   -2    0    1    1    4   -0.010965    0.009166
   -2    0    1    2    4    0.005280    0.031722
   -2    0    1    3    4    0.038478    0.005527
   -2    0    1    4    4   -0.050819   -0.000517
   -2    0    2    1    1    0.049935    0.014227
   -2    0    2    2    1    0.005257   -0.008222
   -2    0    2    3    1   -0.021520    0.011056
   -2    0    2    4    1    0.028161    0.007753
   -2    0    2    1    2    0.004126   -0.010590
   -2    0    2    2    2    0.026666   -0.001025
   -2    0    2    3    2   -0.001022   -0.001245
   -2    0    2    4    2   -0.017289   -0.020944
   -2    0    2    1    3    0.005539    0.010070
   -2    0    2    2    3    0.015176   -0.003651
   -2    0    2    3    3   -0.006046   -0.024542
   -2    0    2    4    3    0.030150    0.005303
   -2    0    2    1    4    0.038501   -0.005939
   -2    0    2    2    4    0.000785   -0.028232
   -2    0    2    3    4   -0.027643   -0.018693
   -2    0    2    4    4   -0.008510    0.011197
   -2    1   -4    1    1    0.160102    0.026943
   -2    1   -4    2    1   -0.043497   -0.036740
   -2    1   -4    3    1   -0.008343    0.032965
   -2    1   -4    4    1   -0.020987   -0.013460
   -2    1   -4    1    2    0.004872   -0.010491
   -2    1   -4    2    2   -0.018278   -0.007239
   -2    1   -4    3    2    0.029105    0.002483
   -2    1   -4    4    2    0.012026   -0.000734
   -2    1   -4    1    3   -0.002091   -0.068069
   -2    1   -4    2    3    0.038435    0.002038
   -2    1   -4    3    3    0.021733    0.024375
   -2    1   -4    4    3   -0.022629   -0.012258
   -2    1   -4    1    4   -0.042571   -0.036427
   -2    1   -4    2    4   -0.009116    0.032404
   -2    1   -4    3    4   -0.022173    0.033674
   -2    1   -4    4    4   -0.013554   -0.057697
   -2    1   -3    1    1    0.116863   -0.039063
   -2    1   -3    2    1    0.027729    0.034361
   -2    1   -3    3    1   -0.031676   -0.036471
   -2    1   -3    4    1    0.045075   -0.005269
   -2    1   -3    1    2   -0.056581    0.013903
   -2    1   -3    2    2    0.025353    0.017295
   -2    1   -3    3    2    0.002598   -0.008223
   -2    1   -3    4    2   -0.015174    0.047273
   -2    1   -3    1    3   -0.009899   -0.057560
   -2    1   -3    2    3    0.035322    0.047550
   -2    1   -3    3    3   -0.020021   -0.011984
   -2    1   -3    4    3   -0.011386    0.011692
   -2    1   -3    1    4   -0.018834    0.015503
   -2    1   -3    2    4   -0.036909   -0.017031
   -2    1   -3    3    4   -0.018881    0.018015
   -2    1   -3    4    4   -0.018059    0.015008
   -2    1   -2    1    1    0.223098   -0.054199
   -2    1   -2    2    1   -0.177670   -0.035729
   -2    1   -2    3    1   -0.005717   -0.047978
   -2    1   -2    4    1    0.085359   -0.007608
   -2    1   -2    1    2    0.104516   -0.164712
   -2    1   -2    2    2   -0.057706    0.102331
   -2    1   -2    3    2   -0.035085    0.050989
   -2    1   -2    4    2    0.092091   -0.074035
   -2    1   -2    1    3    0.122597   -0.027603
   -2    1   -2    2    3   -0.161929    0.001934
   -2    1   -2    3    3    0.013170    0.058235
   -2    1   -2    4    3    0.154269    0.043982
   -2    1   -2    1    4   -0.150738   -0.073928
   -2    1   -2    2    4    0.178863    0.071786
   -2    1   -2    3    4    0.085511    0.072929
   -2    1   -2    4    4   -0.060670   -0.136006
   -2    1   -1    1    1    0.152753   -0.111324
   -2    1   -1    2    1    0.003587    0.120805
   -2    1   -1    3    1    0.113603    0.086526
   -2    1   -1    4    1   -0.037444    0.168201
   -2    1   -1    1    2   -0.025622    0.066501
   -2    1   -1    2    2    0.047498   -0.042534
   -2    1   -1    3    2    0.025842   -0.086108
   -2    1   -1    4    2    0.022093   -0.006342
   -2    1   -1    1    3   -0.117140   -0.037695
   -2    1   -1    2    3    0.153806    0.140677
   -2    1   -1    3    3    0.235387    0.026177
   -2    1   -1    4    3   -0.059725    0.220678
   -2    1   -1    1    4    0.092642    0.220922
   -2    1   -1    2    4   -0.000731   -0.229288
   -2    1   -1    3    4   -0.055013   -0.182114
   -2    1   -1    4    4    0.138844    0.120808
   -2    1    0    1    1    0.094635    0.050435
   -2    1    0    2    1    0.097794   -0.080677
   -2    1    0    3    1    0.017969   -0.012020
   -2    1    0    4    1    0.066993   -0.030911
   -2    1    0    1    2   -0.079934   -0.003572
   -2    1    0    2    2    0.006989   -0.000749
   -2    1    0    3    2    0.021260    0.076103
   -2    1    0    4    2    0.010425    0.012008
   -2    1    0    1    3    0.018199    0.051146
   -2    1    0    2    3    0.054034   -0.109829
   -2    1    0    3    3   -0.004260   -0.041344
   -2    1    0    4    3    0.083982   -0.006173
   -2    1    0    1    4   -0.058990   -0.004058
   -2    1    0    2    4   -0.023742   -0.013635
   -2    1    0    3    4    0.036140    0.033406
   -2    1    0    4    4    0.011953    0.022998
   -2    1    1    1    1    0.086796   -0.003920
   -2    1    1    2    1   -0.006616   -0.014565
   -2    1    1    3    1   -0.006904   -0.031815
   -2    1    1    4    1    0.006279    0.059147
   -2    1    1    1    2    0.009402    0.023123
   -2    1    1    2    2   -0.037532    0.011201
   -2    1    1    3    2    0.011917    0.020992
   -2    1    1    4    2   -0.002450    0.032773
   -2    1    1    1    3   -0.042154   -0.065801
   -2    1    1    2    3    0.001748    0.002717
   -2    1    1    3    3    0.004385   -0.017455
   -2    1    1    4    3    0.014595    0.062974
   -2    1    1    1    4    0.031779    0.048747
   -2    1    1    2    4    0.001532    0.014874
   -2    1    1    3    4    0.003323   -0.042741
   -2    1    1    4    4    0.041159   -0.002058
   -2    1    2    1    1    0.160102    0.026943
   -2    1    2    2    1   -0.043497   -0.036740
   -2    1    2    3    1   -0.008343    0.032965
   -2    1    2    4    1   -0.020987   -0.013460
   -2    1    2    1    2    0.004872   -0.010491
   -2    1    2    2    2   -0.018278   -0.007239
   -2    1    2    3    2    0.029105    0.002483
   -2    1    2    4    2    0.012026   -0.000734
   -2    1    2    1    3   -0.002091   -0.068069
   -2    1    2    2    3    0.038435    0.002038
   -2    1    2    3    3    0.021733    0.024375
   -2    1    2    4    3   -0.022629   -0.012258
   -2    1    2    1    4   -0.042571   -0.036427
   -2    1    2    2    4   -0.009116    0.032404
   -2    1    2    3    4   -0.022173    0.033674
   -2    1    2    4    4   -0.013554   -0.057697
   -2    2   -4    1    1    0.064461   -0.023379
   -2    2   -4    2    1   -0.042094   -0.000566
   -2    2   -4    3    1   -0.015504   -0.003479
   -2    2   -4    4    1    0.011786   -0.023690
   -2    2   -4    1    2   -0.026809    0.011330
   -2    2   -4    2    2   -0.013414    0.015172
   -2    2   -4    3    2    0.010201    0.022010
   -2    2   -4    4    2   -0.058928    0.024160
   -2    2   -4    1    3   -0.033711   -0.003847
   -2    2   -4    2    3   -0.006019   -0.018570
   -2    2   -4    3    3   -0.012928   -0.019325
   -2    2   -4    4    3    0.005308    0.022929
   -2    2   -4    1    4    0.014824   -0.002735
   -2    2   -4    2    4   -0.017010   -0.040648
   -2    2   -4    3    4   -0.020392   -0.019642
   -2    2   -4    4    4    0.022804    0.031502
   -2    2   -3    1    1    0.065709   -0.001154
   -2    2   -3    2    1    0.014927    0.006368
   -2    2   -3    3    1    0.008529    0.005513
   -2    2   -3    4    1   -0.043954   -0.024736
   -2    2   -3    1    2   -0.014716    0.024757
   -2    2   -3    2    2   -0.036395    0.009535
   -2    2   -3    3    2   -0.013740   -0.026249
   -2    2   -3    4    2   -0.044356   -0.058176
   -2    2   -3    1    3   -0.039721   -0.039498
   -2    2   -3    2    3    0.038397   -0.006280
   -2    2   -3    3    3    0.113478   -0.075682
   -2    2   -3    4    3    0.027392   -0.040233
   -2    2   -3    1    4    0.010803    0.023619
   -2    2   -3    2    4    0.001510    0.030882
   -2    2   -3    3    4   -0.001096   -0.011966
   -2    2   -3    4    4   -0.060251    0.084905
   -2    2   -2    1    1    0.019184    0.038645
   -2    2   -2    2    1   -0.012983    0.002441
   -2    2   -2    3    1    0.062319   -0.030638
   -2    2   -2    4    1   -0.061272   -0.013366
   -2    2   -2    1    2    0.010391    0.008434
   -2    2   -2    2    2    0.063223    0.033486
   -2    2   -2    3    2    0.054220   -0.041169
   -2    2   -2    4    2   -0.007658    0.009244
   -2    2   -2    1    3    0.006605   -0.003418
   -2    2   -2    2    3   -0.007260    0.029889
   -2    2   -2    3    3   -0.019559    0.048345
   -2    2   -2    4    3    0.042159    0.002706
   -2    2   -2    1    4    0.021328   -0.099203
   -2    2   -2    2    4    0.020755    0.110948
   -2    2   -2    3    4    0.063684    0.038213
   -2    2   -2    4    4    0.065932   -0.075001
   -2    2   -1    1    1    0.135758    0.060320
   -2    2   -1    2    1   -0.010486    0.007166
   -2    2   -1    3    1   -0.120922    0.009599
   -2    2   -1    4    1    0.039306   -0.020322
   -2    2   -1    1    2    0.064944   -0.006435
   -2    2   -1    2    2    0.083057   -0.032108
   -2    2   -1    3    2   -0.061220    0.005145
   -2    2   -1    4    2    0.035755    0.072796
   -2    2   -1    1    3    0.162114    0.111311
   -2    2   -1    2    3   -0.065354   -0.020712
   -2    2   -1    3    3   -0.229224   -0.021418
   -2    2   -1    4    3   -0.003664   -0.070266
   -2    2   -1    1    4    0.014325   -0.050195
   -2    2   -1    2    4    0.029809   -0.073671
   -2    2   -1    3    4    0.018249    0.033201
   -2    2   -1    4    4    0.079463   -0.001416
   -2    2    0    1    1    0.070057   -0.001936
   -2    2    0    2    1   -0.015507   -0.054105
   -2    2    0    3    1   -0.114192   -0.075840
   -2    2    0    4    1    0.002903   -0.101571
   -2    2    0    1    2    0.021879   -0.077240
   -2    2    0    2    2    0.014133    0.010584
   -2    2    0    3    2   -0.005296    0.058651
   -2    2    0    4    2    0.016157    0.025740
   -2    2    0    1    3    0.030851   -0.074704
   -2    2    0    2    3   -0.057886   -0.045525
   -2    2    0    3    3   -0.060855   -0.049393
   -2    2    0    4    3    0.054827   -0.086917
   -2    2    0    1    4   -0.032220   -0.086978
   -2    2    0    2    4    0.015433    0.037664
   -2    2    0    3    4    0.040730    0.121744
   -2    2    0    4    4   -0.087502    0.001319
   -2    2    1    1    1    0.130520    0.000308
   -2    2    1    2    1    0.010307    0.007509
   -2    2    1    3    1   -0.042548    0.081181
   -2    2    1    4    1   -0.014053   -0.037382
   -2    2    1    1    2   -0.020128   -0.017060
   -2    2    1    2    2   -0.020610   -0.017726
   -2    2    1    3    2   -0.000927    0.020447
   -2    2    1    4    2   -0.004034   -0.032911
   -2    2    1    1    3    0.048837   -0.006076
   -2    2    1    2    3   -0.003955   -0.021534
   -2    2    1    3    3   -0.039064    0.014198
   -2    2    1    4    3   -0.011943   -0.016579
   -2    2    1    1    4    0.025792   -0.003257
   -2    2    1    2    4   -0.041179    0.002684
   -2    2    1    3    4   -0.018357    0.012815
   -2    2    1    4    4   -0.024458   -0.003275
   -2    3   -4    1    1    0.117808   -0.006160
   -2    3   -4    2    1   -0.008402    0.007000
   -2    3   -4    3    1   -0.015986   -0.021149
   -2    3   -4    4    1    0.006687    0.018749
   -2    3   -4    1    2    0.005718    0.024355
   -2    3   -4    2    2    0.019803   -0.017459
   -2    3   -4    3    2    0.003307   -0.035162
   -2    3   -4    4    2   -0.010366    0.002396
   -2    3   -4    1    3   -0.033351   -0.032798
   -2    3   -4    2    3    0.020755    0.009923
   -2    3   -4    3    3    0.012369    0.023079
   -2    3   -4    4    3   -0.021518    0.014627
   -2    3   -4    1    4   -0.035606   -0.005616
   -2    3   -4    2    4   -0.010117    0.015061
   -2    3   -4    3    4    0.030677   -0.009773
   -2    3   -4    4    4    0.011052    0.012652
   -2    3   -3    1    1    0.084948    0.006182
   -2    3   -3    2    1    0.044022    0.005334
   -2    3   -3    3    1    0.016073   -0.055463
   -2    3   -3    4    1    0.062190    0.011628
   -2    3   -3    1    2   -0.003555   -0.037793
   -2    3   -3    2    2    0.037089    0.000431
   -2    3   -3    3    2   -0.022662   -0.005184
   -2    3   -3    4    2    0.006099   -0.018558
   -2    3   -3    1    3    0.001616   -0.003498
   -2    3   -3    2    3    0.002898    0.024693
   -2    3   -3    3    3   -0.007560    0.014834
   -2    3   -3    4    3    0.007926   -0.033428
   -2    3   -3    1    4   -0.028550   -0.017629
   -2    3   -3    2    4    0.014593    0.021639
   -2    3   -3    3    4    0.003735    0.037114
   -2    3   -3    4    4    0.021911   -0.014094
   -2    3   -2    1    1    0.092066   -0.012859
   -2    3   -2    2    1    0.051604    0.018338
   -2    3   -2    3    1    0.033130    0.062561
   -2    3   -2    4    1   -0.023940    0.042660
   -2    3   -2    1    2   -0.031867    0.008727
   -2    3   -2    2    2    0.040954   -0.020705
   -2    3   -2    3    2    0.039856   -0.044190
   -2    3   -2    4    2    0.011184    0.038323
   -2    3   -2    1    3   -0.012024    0.047894
   -2    3   -2    2    3    0.015517   -0.030455
   -2    3   -2    3    3   -0.023448    0.007529
   -2    3   -2    4    3   -0.044330    0.037441
   -2    3   -2    1    4    0.004485    0.043758
   -2    3   -2    2    4   -0.034187    0.012076
   -2    3   -2    3    4   -0.001494   -0.072849
   -2    3   -2    4    4    0.003583    0.016447
   -2    3   -1    1    1    0.139155    0.003140
   -2    3   -1    2    1    0.055045   -0.017727
   -2    3   -1    3    1    0.035717   -0.057043
   -2    3   -1    4    1   -0.003373    0.053771
   -2    3   -1    1    2   -0.022811    0.020157
   -2    3   -1    2    2   -0.042355    0.015028
   -2    3   -1    3    2   -0.023356    0.066335
   -2    3   -1    4    2   -0.039931   -0.025968
   -2    3   -1    1    3   -0.053612   -0.018154
   -2    3   -1    2    3   -0.008822   -0.017380
   -2    3   -1    3    3   -0.042072   -0.056063
   -2    3   -1    4    3   -0.053274   -0.007097
   -2    3   -1    1    4   -0.010646    0.043211
   -2    3   -1    2    4    0.007796   -0.000513
   -2    3   -1    3    4   -0.060141    0.034063
   -2    3   -1    4    4    0.061861    0.024172
   -2    3    0    1    1    0.119279   -0.002554
   -2    3    0    2    1   -0.004594   -0.013626
   -2    3    0    3    1   -0.044082    0.060381
   -2    3    0    4    1   -0.047675   -0.039806
   -2    3    0    1    2   -0.043581   -0.007982
   -2    3    0    2    2   -0.031632   -0.021556
   -2    3    0    3    2    0.007898   -0.024576
   -2    3    0    4    2    0.037003   -0.000133
   -2    3    0    1    3   -0.001700   -0.019195
   -2    3    0    2    3   -0.005912   -0.023856
   -2    3    0    3    3   -0.024889   -0.029998
   -2    3    0    4    3    0.015162   -0.025751
   -2    3    0    1    4   -0.082775    0.021769
   -2    3    0    2    4    0.014168    0.014473
   -2    3    0    3    4    0.040250   -0.033519
   -2    3    0    4    4   -0.027667    0.061728
   -2    3    1    1    1    0.096873    0.009201
   -2    3    1    2    1   -0.014698   -0.025893
   -2    3    1    3    1   -0.007677   -0.009735
   -2    3    1    4    1   -0.010169    0.005874
   -2    3    1    1    2    0.018683    0.004628
   -2    3    1    2    2   -0.027571    0.016537
   -2    3    1    3    2    0.005631    0.011452
   -2    3    1    4    2   -0.006456   -0.044205
   -2    3    1    1    3   -0.031120    0.004311
   -2    3    1    2    3   -0.006152    0.005484
   -2    3    1    3    3    0.051160    0.004805
   -2    3    1    4    3    0.024052   -0.029858
   -2    3    1    1    4    0.011750    0.023028
   -2    3    1    2    4   -0.002558    0.030422
   -2    3    1    3    4    0.010589    0.041096
   -2    3    1    4    4   -0.050987   -0.018149
   -2    4   -3    1    1    0.117286    0.010874
   -2    4   -3    2    1    0.000835   -0.037904
   -2    4   -3    3    1   -0.001644    0.010191
   -2    4   -3    4    1   -0.033579   -0.021283
   -2    4   -3    1    2   -0.010939    0.019640
   -2    4   -3    2    2   -0.012892   -0.005604
   -2    4   -3    3    2   -0.015698   -0.029297
   -2    4   -3    4    2    0.020040   -0.036279
   -2    4   -3    1    3   -0.005907   -0.009437
   -2    4   -3    2    3   -0.001098    0.038077
   -2    4   -3    3    3    0.080929    0.000616
   -2    4   -3    4    3    0.019566    0.003647
   -2    4   -3    1    4    0.021891   -0.006574
   -2    4   -3    2    4    0.004975    0.004511
   -2    4   -3    3    4    0.006925   -0.036816
   -2    4   -3    4    4   -0.022728   -0.013130
   -2    4   -2    1    1    0.082879   -0.007855
   -2    4   -2    2    1   -0.031284   -0.005857
   -2    4   -2    3    1   -0.011918   -0.010224
   -2    4   -2    4    1    0.014589   -0.004374
   -2    4   -2    1    2    0.023145    0.040447
   -2    4   -2    2    2    0.006924    0.001384
   -2    4   -2    3    2   -0.005029    0.013309
   -2    4   -2    4    2   -0.000085    0.038289
   -2    4   -2    1    3    0.003775    0.016499
   -2    4   -2    2    3   -0.020052   -0.010234
   -2    4   -2    3    3    0.004003    0.008410
   -2    4   -2    4    3   -0.007266   -0.017663
   -2    4   -2    1    4   -0.002964   -0.002788
   -2    4   -2    2    4   -0.035355    0.032438
   -2    4   -2    3    4    0.008520    0.016123
   -2    4   -2    4    4   -0.029130   -0.001464
   -2    4   -1    1    1    0.118850    0.028850
   -2    4   -1    2    1    0.002591    0.015071
   -2    4   -1    3    1    0.055752    0.009600
   -2    4   -1    4    1   -0.045821    0.035175
   -2    4   -1    1    2    0.007837   -0.035141
   -2    4   -1    2    2   -0.032753    0.001526
   -2    4   -1    3    2    0.014330    0.023997
   -2    4   -1    4    2   -0.011872    0.008472
   -2    4   -1    1    3   -0.004251   -0.054150
   -2    4   -1    2    3    0.014684   -0.026448
   -2    4   -1    3    3   -0.008112    0.014891
   -2    4   -1    4    3   -0.013028    0.030086
   -2    4   -1    1    4    0.000131   -0.001030
   -2    4   -1    2    4    0.017781   -0.015869
   -2    4   -1    3    4   -0.014151   -0.027382
   -2    4   -1    4    4    0.084592   -0.037354
   -1   -3    1    1    1    0.121576    0.010210
   -1   -3    1    2    1    0.026099   -0.032615
   -1   -3    1    3    1    0.006457   -0.022777
   -1   -3    1    4    1    0.005303    0.000724
   -1   -3    1    1    2   -0.024526   -0.018600
   -1   -3    1    2    2    0.031840   -0.007009
   -1   -3    1    3    2   -0.013112    0.005371
   -1   -3    1    4    2    0.029986    0.018440
   -1   -3    1    1    3    0.037895    0.005859
   -1   -3    1    2    3   -0.010359    0.002683
   -1   -3    1    3    3   -0.029569    0.013978
   -1   -3    1    4    3    0.017694    0.031238
   -1   -3    1    1    4    0.010659   -0.045160
   -1   -3    1    2    4    0.006173   -0.034493
   -1   -3    1    3    4    0.010048   -0.000935
   -1   -3    1    4    4    0.036495   -0.030210
   -1   -3    2    1    1    0.101349   -0.026111
   -1   -3    2    2    1    0.023687   -0.034007
   -1   -3    2    3    1   -0.009367   -0.011069
   -1   -3    2    4    1    0.031028   -0.011121
   -1   -3    2    1    2   -0.041784   -0.015294
   -1   -3    2    2    2   -0.025940   -0.027381
   -1   -3    2    3    2   -0.018031    0.016746
   -1   -3    2    4    2   -0.020378   -0.008294
   -1   -3    2    1    3    0.001279   -0.002217
   -1   -3    2    2    3    0.001438   -0.035683
   -1   -3    2    3    3   -0.044760   -0.006782
   -1   -3    2    4    3    0.002140   -0.039109
   -1   -3    2    1    4    0.020472   -0.003770
   -1   -3    2    2    4    0.002324   -0.015227
   -1   -3    2    3    4    0.013725    0.027655
   -1   -3    2    4    4    0.037711    0.046614
   -1   -2   -2    1    1    0.111272    0.012222
   -1   -2   -2    2    1   -0.003225   -0.002140
   -1   -2   -2    3    1    0.037730    0.018487
   -1   -2   -2    4    1   -0.031795    0.042877
   -1   -2   -2    1    2    0.011131    0.022053
   -1   -2   -2    2    2   -0.005278   -0.002912
   -1   -2   -2    3    2    0.014426    0.036491
   -1   -2   -2    4    2   -0.054141    0.003758
   -1   -2   -2    1    3    0.017472    0.013350
   -1   -2   -2    2    3    0.008609   -0.007590
   -1   -2   -2    3    3    0.023113   -0.046939
   -1   -2   -2    4    3    0.007870    0.028814
   -1   -2   -2    1    4    0.026198    0.013912
   -1   -2   -2    2    4   -0.015006   -0.002391
   -1   -2   -2    3    4   -0.011068    0.003378
   -1   -2   -2    4    4    0.032483    0.030172
   -1   -2   -1    1    1    0.100924   -0.013280
   -1   -2   -1    2    1   -0.045199    0.009568
   -1   -2   -1    3    1   -0.016093    0.008710
   -1   -2   -1    4    1    0.000066   -0.011299
   -1   -2   -1    1    2    0.001848   -0.019926
   -1   -2   -1    2    2    0.029560    0.001613
   -1   -2   -1    3    2    0.010655   -0.027358
   -1   -2   -1    4    2   -0.011196    0.000420
   -1   -2   -1    1    3   -0.002440    0.021694
   -1   -2   -1    2    3    0.020329   -0.021463
   -1   -2   -1    3    3   -0.005797   -0.028124
   -1   -2   -1    4    3    0.016076   -0.041117
   -1   -2   -1    1    4   -0.009849   -0.001947
   -1   -2   -1    2    4   -0.010567    0.012359
   -1   -2   -1    3    4    0.043504   -0.024771
   -1   -2   -1    4    4    0.014743    0.028096
   -1   -2    0    1    1    0.014822    0.009367
   -1   -2    0    2    1    0.039898   -0.062789
   -1   -2    0    3    1   -0.040168   -0.001898
   -1   -2    0    4    1    0.098813   -0.065843
   -1   -2    0    1    2   -0.030280   -0.008821
   -1   -2    0    2    2    0.016938    0.012817
   -1   -2    0    3    2   -0.035948   -0.019599
   -1   -2    0    4    2    0.043783    0.002392
   -1   -2    0    1    3    0.043719   -0.022896
   -1   -2    0    2    3   -0.056918   -0.006848
   -1   -2    0    3    3    0.011280    0.024681
   -1   -2    0    4    3   -0.025534   -0.048167
   -1   -2    0    1    4   -0.134008    0.033842
   -1   -2    0    2    4    0.069336    0.013526
   -1   -2    0    3    4   -0.029965    0.021473
   -1   -2    0    4    4    0.069930   -0.061891
   -1   -2    1    1    1    0.149903    0.028699
   -1   -2    1    2    1   -0.003638   -0.058116
   -1   -2    1    3    1   -0.022710   -0.031938
   -1   -2    1    4    1   -0.015140   -0.078041
   -1   -2    1    1    2   -0.023478   -0.005206
   -1   -2    1    2    2   -0.007957   -0.004958
   -1   -2    1    3    2    0.011812   -0.024268
   -1   -2    1    4    2    0.042057    0.007696
   -1   -2    1    1    3    0.020419   -0.041992
   -1   -2    1    2    3   -0.002658   -0.006996
   -1   -2    1    3    3    0.051706   -0.011547
   -1   -2    1    4    3   -0.013947    0.031523
   -1   -2    1    1    4    0.026130   -0.021590
   -1   -2    1    2    4    0.016305    0.009604
   -1   -2    1    3    4    0.017633   -0.038481
   -1   -2    1    4    4   -0.073804   -0.013469
   -1   -2    2    1    1    0.124590    0.017639
   -1   -2    2    2    1    0.031397    0.006487
   -1   -2    2    3    1    0.033469   -0.018243
   -1   -2    2    4    1   -0.004726    0.020885
   -1   -2    2    1    2    0.042783    0.020331
   -1   -2    2    2    2    0.005868   -0.015065
   -1   -2    2    3    2    0.012567   -0.003228
   -1   -2    2    4    2    0.036433   -0.012337
   -1   -2    2    1    3    0.034176    0.055400
   -1   -2    2    2    3    0.019483   -0.006565
   -1   -2    2    3    3   -0.047481    0.010931
   -1   -2    2    4    3    0.025597   -0.027420
   -1   -2    2    1    4    0.003197   -0.037097
   -1   -2    2    2    4    0.011268    0.029815
   -1   -2    2    3    4    0.019085    0.074836
   -1   -2    2    4    4   -0.050087    0.000470
   -1   -2    3    1    1    0.115284   -0.007605
   -1   -2    3    2    1   -0.022599    0.016902
   -1   -2    3    3    1   -0.068402    0.032402
   -1   -2    3    4    1    0.002084    0.007582
   -1   -2    3    1    2    0.021327   -0.023518
   -1   -2    3    2    2   -0.006970   -0.009593
   -1   -2    3    3    2   -0.003402    0.013174
   -1   -2    3    4    2    0.002099    0.018901
   -1   -2    3    1    3    0.029950    0.048206
   -1   -2    3    2    3   -0.000846   -0.053830
   -1   -2    3    3    3   -0.057182   -0.007809
   -1   -2    3    4    3    0.015804   -0.000606
   -1   -2    3    1    4    0.024368   -0.046139
   -1   -2    3    2    4    0.014830   -0.008004
   -1   -2    3    3    4   -0.013859   -0.006393
   -1   -2    3    4    4    0.026299    0.029325
   -1   -1   -3    1    1    0.129231    0.004141
   -1   -1   -3    2    1   -0.023342   -0.047791
   -1   -1   -3    3    1   -0.001134   -0.008895
   -1   -1   -3    4    1    0.025295    0.025652
   -1   -1   -3    1    2    0.003274    0.030338
   -1   -1   -3    2    2   -0.011655    0.001033
   -1   -1   -3    3    2    0.007652    0.019267
   -1   -1   -3    4    2    0.055387    0.003038
   -1   -1   -3    1    3    0.031745    0.036797
   -1   -1   -3    2    3   -0.014869    0.008347
   -1   -1   -3    3    3    0.006047    0.004969
   -1   -1   -3    4    3   -0.012661   -0.003155
   -1   -1   -3    1    4   -0.008829   -0.020145
   -1   -1   -3    2    4    0.009124    0.026446
   -1   -1   -3    3    4   -0.008642    0.015228
   -1   -1   -3    4    4    0.026901   -0.025452
   -1   -1   -2    1    1    0.053776    0.030102
   -1   -1   -2    2    1   -0.000385   -0.003399
   -1   -1   -2    3    1   -0.014648    0.049825
   -1   -1   -2    4    1   -0.005864    0.022784
   -1   -1   -2    1    2   -0.057552   -0.003340
   -1   -1   -2    2    2    0.024577   -0.029264
   -1   -1   -2    3    2   -0.060963   -0.027616
   -1   -1   -2    4    2    0.025837    0.009543
   -1   -1   -2    1    3   -0.004257   -0.033727
   -1   -1   -2    2    3   -0.040081    0.029802
   -1   -1   -2    3    3    0.017226   -0.019245
   -1   -1   -2    4    3    0.011993    0.014269
   -1   -1   -2    1    4   -0.009422    0.019125
   -1   -1   -2    2    4    0.006424    0.013576
   -1   -1   -2    3    4    0.001565   -0.025239
   -1   -1   -2    4    4    0.008627    0.002306
   -1   -1   -1    1    1    0.233019   -0.044442
   -1   -1   -1    2    1   -0.102078    0.086261
   -1   -1   -1    3    1    0.114468    0.042466
   -1   -1   -1    4    1   -0.099658    0.086129
   -1   -1   -1    1    2    0.186051    0.017827
   -1   -1   -1    2    2   -0.044219    0.047771
   -1   -1   -1    3    2    0.152123    0.039690
   -1   -1   -1    4    2   -0.078645    0.016702
   -1   -1   -1    1    3   -0.068438   -0.006257
   -1   -1   -1    2    3    0.103234   -0.016716
   -1   -1   -1    3    3   -0.032752   -0.051900
   -1   -1   -1    4    3    0.151059    0.035210
   -1   -1   -1    1    4    0.021356    0.028359
   -1   -1   -1    2    4   -0.074138    0.075167
   -1   -1   -1    3    4    0.082692    0.026396
   -1   -1   -1    4    4   -0.039317    0.021056
   -1   -1    0    1    1    0.222029    0.038723
   -1   -1    0    2    1    0.029529   -0.090815
   -1   -1    0    3    1   -0.079161   -0.238937
   -1   -1    0    4    1    0.127607   -0.071680
   -1   -1    0    1    2    0.015031   -0.064406
   -1   -1    0    2    2    0.045755   -0.054891
   -1   -1    0    3    2    0.007024   -0.203103
   -1   -1    0    4    2    0.187874    0.061812
   -1   -1    0    1    3    0.041416   -0.094899
   -1   -1    0    2    3   -0.054423   -0.057600
   -1   -1    0    3    3    0.036494    0.064454
   -1   -1    0    4    3   -0.082328    0.158369
   -1   -1    0    1    4   -0.066630   -0.020480
   -1   -1    0    2    4    0.032385   -0.124648
   -1   -1    0    3    4   -0.132029   -0.197065
   -1   -1    0    4    4    0.267491   -0.055550
   -1   -1    1    1    1    0.129622   -0.045396
   -1   -1    1    2    1    0.121068    0.039057
   -1   -1    1    3    1    0.052328   -0.026412
   -1   -1    1    4    1   -0.029588    0.025140
   -1   -1    1    1    2   -0.061061    0.018584
   -1   -1    1    2    2    0.015786    0.019352
   -1   -1    1    3    2   -0.075670   -0.032689
   -1   -1    1    4    2    0.070837   -0.126491
   -1   -1    1    1    3   -0.047410    0.018643
   -1   -1    1    2    3   -0.011478    0.009363
   -1   -1    1    3    3    0.010158   -0.076173
   -1   -1    1    4    3    0.073587   -0.008803
   -1   -1    1    1    4   -0.021343   -0.106882
   -1   -1    1    2    4    0.058419    0.106171
   -1   -1    1    3    4    0.003516    0.081218
   -1   -1    1    4    4   -0.043461    0.132676
   -1   -1    2    1    1    0.090396   -0.026618
   -1   -1    2    2    1    0.058094   -0.053091
   -1   -1    2    3    1   -0.022293   -0.027594
   -1   -1    2    4    1    0.054756    0.134747
   -1   -1    2    1    2    0.002215   -0.045029
   -1   -1    2    2    2   -0.022430   -0.007214
   -1   -1    2    3    2    0.001289    0.009620
   -1   -1    2    4    2   -0.028303   -0.012282
   -1   -1    2    1    3    0.023520   -0.002580
   -1   -1    2    2    3   -0.007181   -0.005370
   -1   -1    2    3    3    0.032017    0.009755
   -1   -1    2    4    3   -0.010164    0.064759
   -1   -1    2    1    4   -0.020731    0.030957
   -1   -1    2    2    4    0.002964   -0.016318
   -1   -1    2    3    4    0.026254   -0.013539
   -1   -1    2    4    4   -0.003444    0.010809
   -1   -1    3    1    1    0.129231    0.004141
   -1   -1    3    2    1   -0.023342   -0.047791
   -1   -1    3    3    1   -0.001134   -0.008895
   -1   -1    3    4    1    0.025295    0.025652
   -1   -1    3    1    2    0.003274    0.030338
   -1   -1    3    2    2   -0.011655    0.001033
   -1   -1    3    3    2    0.007652    0.019267
   -1   -1    3    4    2    0.055387    0.003038
   -1   -1    3    1    3    0.031745    0.036797
   -1   -1    3    2    3   -0.014869    0.008347
   -1   -1    3    3    3    0.006047    0.004969
   -1   -1    3    4    3   -0.012661   -0.003155
   -1   -1    3    1    4   -0.008829   -0.020145
   -1   -1    3    2    4    0.009124    0.026446
   -1   -1    3    3    4   -0.008642    0.015228
   -1   -1    3    4    4    0.026901   -0.025452
   -1    0   -3    1    1    0.127766   -0.026423
   -1    0   -3    2    1   -0.036172    0.044190
   -1    0   -3    3    1   -0.046445   -0.000241
   -1    0   -3    4    1    0.031506   -0.004022
   -1    0   -3    1    2    0.019500   -0.023025
   -1    0   -3    2    2    0.017289   -0.002756
   -1    0   -3    3    2   -0.044534   -0.044109
   -1    0   -3    4    2    0.029233   -0.001926
   -1    0   -3    1    3   -0.008433    0.032672
   -1    0   -3    2    3   -0.018671    0.012300
   -1    0   -3    3    3    0.033327   -0.002706
   -1    0   -3    4    3   -0.083870   -0.017950
   -1    0   -3    1    4    0.025831   -0.026576
   -1    0   -3    2    4   -0.014141    0.023253
   -1    0   -3    3    4   -0.024684    0.040414
   -1    0   -3    4    4   -0.035356    0.030662
   -1    0   -2    1    1    0.257163   -0.039440
   -1    0   -2    2    1   -0.176745    0.046671
   -1    0   -2    3    1    0.088738   -0.052661
   -1    0   -2    4    1    0.107112    0.065454
   -1    0   -2    1    2    0.111320   -0.077131
   -1    0   -2    2    2    0.053441    0.039423
   -1    0   -2    3    2    0.034118   -0.112170
   -1    0   -2    4    2    0.095831    0.105913
   -1    0   -2    1    3   -0.095329   -0.045528
   -1    0   -2    2    3    0.136651    0.171724
   -1    0   -2    3    3   -0.081240    0.015010
   -1    0   -2    4    3   -0.179608   -0.103118
   -1    0   -2    1    4   -0.138212    0.011400
   -1    0   -2    2    4    0.120100   -0.088464
   -1    0   -2    3    4   -0.059110    0.115894
   -1    0   -2    4    4   -0.080782    0.020918
   -1    0   -1    1    1   -0.574334   -0.069604
   -1    0   -1    2    1    0.861404    0.158776
   -1    0   -1    3    1   -0.080503    0.300770
   -1    0   -1    4    1   -0.185184   -0.224231
   -1    0   -1    1    2   -0.722903   -0.008468
   -1    0   -1    2    2    0.824210    0.209850
   -1    0   -1    3    2   -0.213796    0.520772
   -1    0   -1    4    2   -0.463172   -0.325377
   -1    0   -1    1    3    0.199800    0.309064
   -1    0   -1    2    3   -0.366476   -0.329918
   -1    0   -1    3    3   -0.321592   -0.134912
   -1    0   -1    4    3   -0.081270   -0.547424
   -1    0   -1    1    4    0.027590   -0.227238
   -1    0   -1    2    4   -0.118944    0.496978
   -1    0   -1    3    4    0.120918    0.403814
   -1    0   -1    4    4   -0.317138    0.186014
   -1    0    0    1    1   -0.730494   -0.012244
   -1    0    0    2    1    0.809511   -0.091288
   -1    0    0    3    1    0.864615    0.043423
   -1    0    0    4    1    0.810364    0.013550
   -1    0    0    1    2   -0.662810    0.017184
   -1    0    0    2    2    0.294379    0.276654
   -1    0    0    3    2    0.547870    0.448958
   -1    0    0    4    2    0.206194   -0.162263
   -1    0    0    1    3   -0.651996    0.033610
   -1    0    0    2    3    0.323522   -0.260944
   -1    0    0    3    3    0.567756   -0.038259
   -1    0    0    4    3    0.735168    0.159083
   -1    0    0    1    4   -0.700493   -0.042043
   -1    0    0    2    4    0.539297    0.241908
   -1    0    0    3    4    0.506306   -0.427422
   -1    0    0    4    4    0.860298   -0.124684
   -1    0    1    1    1    0.237172   -0.008205
   -1    0    1    2    1    0.026659   -0.121231
   -1    0    1    3    1   -0.202707   -0.222430
   -1    0    1    4    1   -0.009877    0.131482
   -1    0    1    1    2   -0.057994    0.035850
   -1    0    1    2    2    0.005793    0.001033
   -1    0    1    3    2    0.058516   -0.061464
   -1    0    1    4    2    0.122786   -0.035467
   -1    0    1    1    3    0.109914   -0.115160
   -1    0    1    2    3   -0.034954   -0.085969
   -1    0    1    3    3   -0.004917   -0.027715
   -1    0    1    4    3   -0.128238    0.157091
   -1    0    1    1    4    0.123586    0.154608
   -1    0    1    2    4    0.016614    0.051748
   -1    0    1    3    4   -0.136423   -0.238371
   -1    0    1    4    4    0.119495   -0.045134
   -1    0    2    1    1    0.141655    0.039835
   -1    0    2    2    1   -0.013325   -0.005901
   -1    0    2    3    1   -0.027054    0.024442
   -1    0    2    4    1   -0.006766   -0.030213
   -1    0    2    1    2    0.000019   -0.012602
   -1    0    2    2    2    0.051871    0.021193
   -1    0    2    3    2   -0.007273   -0.055718
   -1    0    2    4    2    0.008417    0.030478
   -1    0    2    1    3    0.049523    0.048326
   -1    0    2    2    3    0.002625    0.034543
   -1    0    2    3    3   -0.046384   -0.062951
   -1    0    2    4    3    0.007863   -0.001748
   -1    0    2    1    4    0.065911   -0.083775
   -1    0    2    2    4   -0.001519   -0.010557
   -1    0    2    3    4   -0.099743    0.052620
   -1    0    2    4    4   -0.051218   -0.021844
   -1    1   -3    1    1    0.048103    0.014682
   -1    1   -3    2    1   -0.001558   -0.004289
   -1    1   -3    3    1    0.053226    0.006472
   -1    1   -3    4    1   -0.034882   -0.058466
   -1    1   -3    1    2    0.042643    0.031272
   -1    1   -3    2    2   -0.005638   -0.005899
   -1    1   -3    3    2   -0.039487   -0.031867
   -1    1   -3    4    2   -0.004704   -0.049977
   -1    1   -3    1    3    0.023842    0.050876
   -1    1   -3    2    3   -0.016826   -0.010291
   -1    1   -3    3    3   -0.003727    0.008821
   -1    1   -3    4    3    0.035063    0.006131
   -1    1   -3    1    4    0.023476   -0.089085
   -1    1   -3    2    4    0.030005    0.026308
   -1    1   -3    3    4    0.001382    0.008930
   -1    1   -3    4    4    0.045247    0.021711
   -1    1   -2    1    1    0.215051    0.147994
   -1    1   -2    2    1   -0.105518    0.059151
   -1    1   -2    3    1   -0.009022    0.052614
   -1    1   -2    4    1    0.103823    0.153848
   -1    1   -2    1    2    0.210220    0.203525
   -1    1   -2    2    2   -0.087504   -0.113079
   -1    1   -2    3    2    0.001125   -0.009753
   -1    1   -2    4    2    0.203578    0.139371
   -1    1   -2    1    3   -0.000284    0.088529
   -1    1   -2    2    3    0.103410   -0.116396
   -1    1   -2    3    3    0.085383    0.037358
   -1    1   -2    4    3    0.006820    0.177147
   -1    1   -2    1    4   -0.027223   -0.046730
   -1    1   -2    2    4   -0.002535   -0.111061
   -1    1   -2    3    4    0.009659   -0.072230
   -1    1   -2    4    4    0.127111   -0.042064
   -1    1   -1    1    1   -0.672420    0.043130
   -1    1   -1    2    1    0.649667   -0.031855
   -1    1   -1    3    1    0.788348   -0.055689
   -1    1   -1    4    1   -0.643629   -0.102478
   -1    1   -1    1    2   -0.492383   -0.018286
   -1    1   -1    2    2    0.607839   -0.183513
   -1    1   -1    3    2    0.355701   -0.083762
   -1    1   -1    4    2   -0.167428    0.017128
   -1    1   -1    1    3   -0.668726    0.108327
   -1    1   -1    2    3    0.485768   -0.007604
   -1    1   -1    3    3    0.504145    0.103878
   -1    1   -1    4    3   -0.833667    0.051091
   -1    1   -1    1    4    0.842180   -0.206919
   -1    1   -1    2    4   -0.656491    0.015612
   -1    1   -1    3    4   -0.663979    0.269742
   -1    1   -1    4    4    0.603429   -0.072929
   -1    1    0    1    1   -0.169036   -0.006620
   -1    1    0    2    1   -0.063957   -0.301893
   -1    1    0    3    1    0.040187   -0.310923
   -1    1    0    4    1    0.179841   -0.436376
   -1    1    0    1    2    0.104208   -0.272080
   -1    1    0    2    2   -0.024839    0.068109
   -1    1    0    3    2   -0.104001    0.315165
   -1    1    0    4    2   -0.128479   -0.005678
   -1    1    0    1    3   -0.130424    0.026195
   -1    1    0    2    3   -0.202412   -0.288807
   -1    1    0    3    3    0.102485   -0.246161
   -1    1    0    4    3    0.272186   -0.541597
   -1    1    0    1    4   -0.144195   -0.517447
   -1    1    0    2    4   -0.027809    0.282216
   -1    1    0    3    4    0.280196    0.699167
   -1    1    0    4    4   -0.317737    0.076179
   -1    1    1    1    1    0.095035   -0.033601
   -1    1    1    2    1    0.022466    0.051889
   -1    1    1    3    1   -0.071420    0.091017
   -1    1    1    4    1    0.036294   -0.015415
   -1    1    1    1    2    0.018975   -0.042930
   -1    1    1    2    2    0.039441    0.036189
   -1    1    1    3    2   -0.050674   -0.041096
   -1    1    1    4    2   -0.022111   -0.039188
   -1    1    1    1    3    0.013168    0.054482
   -1    1    1    2    3   -0.035593    0.102232
   -1    1    1    3    3    0.015956   -0.035965
   -1    1    1    4    3    0.092138    0.009582
   -1    1    1    1    4    0.005973   -0.015000
   -1    1    1    2    4    0.066722    0.070989
   -1    1    1    3    4    0.043582   -0.060991
   -1    1    1    4    4    0.034912    0.056200
   -1    1    2    1    1    0.075897    0.003024
   -1    1    2    2    1   -0.052885    0.003074
   -1    1    2    3    1   -0.058019    0.000766
   -1    1    2    4    1    0.005406    0.004876
   -1    1    2    1    2   -0.011580   -0.024977
   -1    1    2    2    2    0.051005    0.000480
   -1    1    2    3    2   -0.037670   -0.051663
   -1    1    2    4    2   -0.004449   -0.007302
   -1    1    2    1    3    0.023478    0.001560
   -1    1    2    2    3   -0.021368    0.002170
   -1    1    2    3    3    0.011083   -0.006396
   -1    1    2    4    3    0.012486    0.015091
   -1    1    2    1    4   -0.024082   -0.005240
   -1    1    2    2    4    0.043682   -0.021551
   -1    1    2    3    4    0.025474   -0.023174
   -1    1    2    4    4    0.009858    0.036260
   -1    2   -4    1    1    0.126402   -0.004187
   -1    2   -4    2    1    0.009843   -0.014054
   -1    2   -4    3    1   -0.000890    0.014968
   -1    2   -4    4    1    0.027897    0.049674
   -1    2   -4    1    2    0.026506    0.011525
   -1    2   -4    2    2   -0.004217   -0.008893
   -1    2   -4    3    2    0.000104    0.017492
   -1    2   -4    4    2   -0.009221   -0.008879
   -1    2   -4    1    3    0.025376   -0.001511
   -1    2   -4    2    3   -0.001603   -0.015255
   -1    2   -4    3    3    0.043656    0.005322
   -1    2   -4    4    3   -0.024917    0.031599
   -1    2   -4    1    4   -0.003483   -0.015088
   -1    2   -4    2    4   -0.024991    0.030684
   -1    2   -4    3    4   -0.029863   -0.037948
   -1    2   -4    4    4   -0.012308    0.007320
   -1    2   -3    1    1    0.148831    0.044429
   -1    2   -3    2    1    0.008408   -0.005309
   -1    2   -3    3    1    0.018137   -0.008955
   -1    2   -3    4    1    0.037354    0.051755
   -1    2   -3    1    2    0.004210   -0.030878
   -1    2   -3    2    2    0.005340   -0.031549
   -1    2   -3    3    2    0.016210    0.003426
   -1    2   -3    4    2    0.008707    0.021943
   -1    2   -3    1    3    0.013098   -0.012829
   -1    2   -3    2    3    0.032004    0.013592
   -1    2   -3    3    3    0.026095    0.022069
   -1    2   -3    4    3   -0.003856    0.017958
   -1    2   -3    1    4   -0.075605   -0.010410
   -1    2   -3    2    4    0.031826   -0.014482
   -1    2   -3    3    4    0.007204   -0.029479
   -1    2   -3    4    4   -0.078865   -0.057747
   -1    2   -2    1    1    0.140029   -0.109041
   -1    2   -2    2    1   -0.006923   -0.028779
   -1    2   -2    3    1    0.012322    0.001122
   -1    2   -2    4    1    0.049926   -0.002809
   -1    2   -2    1    2    0.015248    0.012191
   -1    2   -2    2    2   -0.060046   -0.009855
   -1    2   -2    3    2   -0.027108    0.094771
   -1    2   -2    4    2   -0.059123   -0.009194
   -1    2   -2    1    3   -0.004697    0.023903
   -1    2   -2    2    3   -0.044590   -0.009589
   -1    2   -2    3    3    0.023241   -0.021847
   -1    2   -2    4    3   -0.065623   -0.085726
   -1    2   -2    1    4    0.002469    0.123837
   -1    2   -2    2    4    0.011001   -0.003013
   -1    2   -2    3    4   -0.125541   -0.005235
   -1    2   -2    4    4    0.023594    0.078688
   -1    2   -1    1    1    0.182769   -0.006562
   -1    2   -1    2    1   -0.024901    0.059920
   -1    2   -1    3    1    0.143730    0.147312
   -1    2   -1    4    1   -0.183773    0.087598
[...]
    3   -2   -1    2    1    0.010461    0.003216
    3   -2   -1    3    1    0.002517    0.037848
    3   -2   -1    4    1    0.029525    0.028179
    3   -2   -1    1    2   -0.004311   -0.001228
    3   -2   -1    2    2    0.003803    0.007300
    3   -2   -1    3    2   -0.001150   -0.015063
    3   -2   -1    4    2   -0.032449   -0.037706
    3   -2   -1    1    3    0.000848   -0.034443
    3   -2   -1    2    3   -0.013372    0.017527
    3   -2   -1    3    3    0.033195   -0.010297
    3   -2   -1    4    3   -0.017803   -0.009151
    3   -2   -1    1    4   -0.054990    0.006536
    3   -2   -1    2    4    0.002228    0.035013
    3   -2   -1    3    4    0.011770   -0.019286
    3   -2   -1    4    4   -0.059775   -0.001017
    3   -2    0    1    1    0.107628   -0.012245
    3   -2    0    2    1   -0.043359    0.018518
    3   -2    0    3    1   -0.008825    0.039527
    3   -2    0    4    1   -0.050867   -0.011972
    3   -2    0    1    2   -0.001854    0.010320
    3   -2    0    2    2   -0.001188   -0.008283
    3   -2    0    3    2    0.012337    0.005233
    3   -2    0    4    2    0.013377   -0.006598
    3   -2    0    1    3   -0.023161   -0.033144
    3   -2    0    2    3    0.011230    0.005829
    3   -2    0    3    3   -0.015344    0.012830
    3   -2    0    4    3    0.003270   -0.058651
    3   -2    0    1    4   -0.024142    0.013994
    3   -2    0    2    4    0.030364   -0.000380
    3   -2    0    3    4    0.024522    0.038793
    3   -2    0    4    4   -0.058905   -0.004433
    3   -2    1    1    1    0.142953    0.017659
    3   -2    1    2    1   -0.016776   -0.054052
    3   -2    1    3    1    0.014166   -0.008040
    3   -2    1    4    1   -0.018670   -0.033954
    3   -2    1    1    2    0.024054   -0.013809
    3   -2    1    2    2   -0.027877   -0.008291
    3   -2    1    3    2    0.016386    0.005624
    3   -2    1    4    2    0.011815    0.008061
    3   -2    1    1    3    0.019986   -0.051953
    3   -2    1    2    3    0.002302   -0.013136
    3   -2    1    3    3   -0.039782   -0.015019
    3   -2    1    4    3   -0.001848    0.030067
    3   -2    1    1    4   -0.043692   -0.012879
    3   -2    1    2    4    0.000619    0.000887
    3   -2    1    3    4   -0.012934   -0.060891
    3   -2    1    4    4    0.046069    0.008010
    3   -2    2    1    1    0.078040   -0.002857
    3   -2    2    2    1   -0.033661   -0.006139
    3   -2    2    3    1   -0.102080   -0.040393
    3   -2    2    4    1    0.047935   -0.026307
    3   -2    2    1    2    0.033167   -0.034379
    3   -2    2    2    2    0.001459   -0.018884
    3   -2    2    3    2    0.038626   -0.043311
    3   -2    2    4    2    0.019924    0.007521
    3   -2    2    1    3    0.051131    0.036012
    3   -2    2    2    3    0.004270    0.016635
    3   -2    2    3    3    0.032947    0.043361
    3   -2    2    4    3   -0.030113    0.004540
    3   -2    2    1    4   -0.042101   -0.033618
    3   -2    2    2    4   -0.010419    0.009973
    3   -2    2    3    4   -0.013095    0.047086
    3   -2    2    4    4    0.001041   -0.005444
    3   -2    3    1    1    0.136773    0.013247
    3   -2    3    2    1    0.034237    0.036476
    3   -2    3    3    1    0.054950    0.017226
    3   -2    3    4    1   -0.067148    0.037153
    3   -2    3    1    2   -0.057575    0.010593
    3   -2    3    2    2   -0.008756    0.008422
    3   -2    3    3    2   -0.011971    0.026687
    3   -2    3    4    2    0.007100    0.013790
    3   -2    3    1    3    0.004457    0.014179
    3   -2    3    2    3   -0.009912   -0.042128
    3   -2    3    3    3   -0.037356   -0.023122
    3   -2    3    4    3    0.012432   -0.001536
    3   -2    3    1    4    0.015595    0.006691
    3   -2    3    2    4    0.022491    0.009844
    3   -2    3    3    4    0.026408    0.012224
    3   -2    3    4    4    0.048433    0.012770
    3   -2    4    1    1    0.127685   -0.016652
    3   -2    4    2    1    0.018613    0.023635
    3   -2    4    3    1    0.037227    0.003940
    3   -2    4    4    1   -0.020367    0.053113
    3   -2    4    1    2   -0.036678    0.035724
    3   -2    4    2    2    0.011367    0.005218
    3   -2    4    3    2   -0.036737   -0.007190
    3   -2    4    4    2   -0.017906   -0.020713
    3   -2    4    1    3   -0.061280    0.031344
    3   -2    4    2    3   -0.020042    0.006189
    3   -2    4    3    3    0.009971   -0.036385
    3   -2    4    4    3    0.002331   -0.010295
    3   -2    4    1    4    0.051978    0.017605
    3   -2    4    2    4    0.029599   -0.030207
    3   -2    4    3    4   -0.009795   -0.032422
    3   -2    4    4    4    0.012417    0.052664
    3   -1   -1    1    1    0.139556    0.013354
    3   -1   -1    2    1   -0.039185    0.030045
    3   -1   -1    3    1    0.002210    0.002075
    3   -1   -1    4    1   -0.013872   -0.008969
    3   -1   -1    1    2    0.036537   -0.016147
    3   -1   -1    2    2   -0.023313    0.000610
    3   -1   -1    3    2   -0.019137    0.008837
    3   -1   -1    4    2   -0.008251    0.020890
    3   -1   -1    1    3   -0.037591   -0.006546
    3   -1   -1    2    3    0.000390   -0.021267
    3   -1   -1    3    3   -0.037348    0.008081
    3   -1   -1    4    3    0.022033   -0.008016
    3   -1   -1    1    4   -0.013382   -0.020741
    3   -1   -1    2    4   -0.028973    0.002018
    3   -1   -1    3    4   -0.039123    0.031795
    3   -1   -1    4    4    0.081928   -0.026179
    3   -1    0    1    1    0.104266   -0.032585
    3   -1    0    2    1    0.011417    0.021493
    3   -1    0    3    1    0.035893   -0.020499
    3   -1    0    4    1   -0.029554    0.029652
    3   -1    0    1    2    0.051367   -0.003628
    3   -1    0    2    2   -0.015251    0.001796
    3   -1    0    3    2    0.017418    0.010908
    3   -1    0    4    2   -0.026334    0.004436
    3   -1    0    1    3    0.008895    0.006310
    3   -1    0    2    3   -0.008609   -0.019973
    3   -1    0    3    3    0.047753   -0.009750
    3   -1    0    4    3   -0.003202   -0.013569
    3   -1    0    1    4    0.010067   -0.010775
    3   -1    0    2    4    0.010931    0.029117
    3   -1    0    3    4    0.055788    0.008920
    3   -1    0    4    4   -0.004113    0.041241
    3   -1    1    1    1    0.057104    0.015197
    3   -1    1    2    1    0.035663   -0.020760
    3   -1    1    3    1   -0.065430    0.008576
    3   -1    1    4    1    0.048416   -0.026728
    3   -1    1    1    2   -0.036390   -0.041801
    3   -1    1    2    2    0.003191    0.026674
    3   -1    1    3    2    0.021625    0.000664
    3   -1    1    4    2   -0.012928   -0.006562
    3   -1    1    1    3    0.010900    0.027933
    3   -1    1    2    3    0.063693    0.029462
    3   -1    1    3    3    0.033725   -0.002937
    3   -1    1    4    3    0.047927   -0.024178
    3   -1    1    1    4   -0.014480   -0.013033
    3   -1    1    2    4    0.001063   -0.044842
    3   -1    1    3    4   -0.000140   -0.023674
    3   -1    1    4    4    0.016464   -0.036143
    3   -1    2    1    1    0.132161   -0.024806
    3   -1    2    2    1    0.031139   -0.011205
    3   -1    2    3    1    0.050204    0.014238
    3   -1    2    4    1   -0.009636    0.072508
    3   -1    2    1    2    0.030516    0.029474
    3   -1    2    2    2   -0.020579   -0.002139
    3   -1    2    3    2    0.015214    0.018865
    3   -1    2    4    2   -0.022627   -0.071104
    3   -1    2    1    3    0.059041    0.044996
    3   -1    2    2    3   -0.014000   -0.000511
    3   -1    2    3    3    0.007204    0.049157
    3   -1    2    4    3   -0.005899   -0.020606
    3   -1    2    1    4    0.027468    0.015954
    3   -1    2    2    4    0.028088    0.008172
    3   -1    2    3    4    0.010983   -0.040293
    3   -1    2    4    4   -0.003410   -0.022993
    3   -1    3    1    1    0.090545    0.014657
    3   -1    3    2    1   -0.013232   -0.028596
    3   -1    3    3    1   -0.036172    0.017212
    3   -1    3    4    1   -0.018174   -0.016029
    3   -1    3    1    2   -0.032554   -0.002588
    3   -1    3    2    2   -0.027842    0.018205
    3   -1    3    3    2   -0.018892    0.006596
    3   -1    3    4    2    0.013160   -0.008771
    3   -1    3    1    3   -0.013627   -0.001264
    3   -1    3    2    3   -0.021324   -0.023892
    3   -1    3    3    3   -0.037362    0.018187
    3   -1    3    4    3   -0.014468   -0.010054
    3   -1    3    1    4   -0.001857   -0.036841
    3   -1    3    2    4   -0.047462    0.016418
    3   -1    3    3    4   -0.035388   -0.003044
    3   -1    3    4    4    0.009114   -0.054435
    3   -1    4    1    1    0.065648   -0.008658
    3   -1    4    2    1   -0.013728    0.017672
    3   -1    4    3    1    0.041014    0.022318
    3   -1    4    4    1   -0.064575    0.037306
    3   -1    4    1    2    0.012586    0.014330
    3   -1    4    2    2    0.023571   -0.015990
    3   -1    4    3    2   -0.028370   -0.029366
    3   -1    4    4    2    0.003116    0.003233
    3   -1    4    1    3    0.016274   -0.037464
    3   -1    4    2    3   -0.042828    0.033106
    3   -1    4    3    3    0.009294    0.003580
    3   -1    4    4    3   -0.033108    0.010610
    3   -1    4    1    4   -0.001337    0.020330
    3   -1    4    2    4    0.002167    0.026229
    3   -1    4    3    4   -0.003274    0.010018
    3   -1    4    4    4   -0.019375    0.015813
    3    0    0    1    1   -0.056436   -0.000000
    3    0    0    2    1    0.007251    0.003309
    3    0    0    3    1   -0.011199   -0.014338
    3    0    0    4    1    0.035282   -0.018568
    3    0    0    1    2    0.007251   -0.003309
    3    0    0    2    2   -0.015132    0.000000
    3    0    0    3    2    0.010815    0.002160
    3    0    0    4    2    0.005693    0.045777
    3    0    0    1    3   -0.011199    0.014338
    3    0    0    2    3    0.010815   -0.002160
    3    0    0    3    3   -0.031846   -0.000000
    3    0    0    4    3   -0.001728    0.045345
    3    0    0    1    4    0.035282    0.018568
    3    0    0    2    4    0.005693   -0.045777
    3    0    0    3    4   -0.001728   -0.045345
    3    0    0    4    4    0.031702   -0.000000
    3    0    1    1    1    0.170413    0.014413
    3    0    1    2    1    0.036028   -0.080249
    3    0    1    3    1   -0.019715   -0.039995
    3    0    1    4    1    0.056439   -0.038496
    3    0    1    1    2   -0.042659    0.042560
    3    0    1    2    2   -0.003877    0.023316
    3    0    1    3    2   -0.005040    0.025529
    3    0    1    4    2   -0.015045   -0.007649
    3    0    1    1    3    0.001728    0.015977
    3    0    1    2    3    0.007145   -0.034627
    3    0    1    3    3   -0.022365   -0.034252
    3    0    1    4    3    0.004581   -0.008873
    3    0    1    1    4   -0.014836    0.006388
    3    0    1    2    4   -0.062454    0.039417
    3    0    1    3    4   -0.058679    0.066932
    3    0    1    4    4   -0.025357   -0.004330
    3    0    2    1    1    0.085338    0.020585
    3    0    2    2    1   -0.018063    0.015685
    3    0    2    3    1   -0.045031    0.001550
    3    0    2    4    1   -0.010558   -0.009677
    3    0    2    1    2    0.007514   -0.017392
    3    0    2    2    2    0.024565    0.012202
    3    0    2    3    2   -0.008661   -0.015524
    3    0    2    4    2    0.005412    0.020698
    3    0    2    1    3    0.016678   -0.002355
    3    0    2    2    3   -0.030049    0.000399
    3    0    2    3    3   -0.016312   -0.029338
    3    0    2    4    3    0.021679    0.030473
    3    0    2    1    4    0.027823    0.000066
    3    0    2    2    4    0.009383    0.006617
    3    0    2    3    4   -0.008846    0.024260
    3    0    2    4    4   -0.065317   -0.006572
    3    0    3    1    1    0.094397   -0.000000
    3    0    3    2    1   -0.033392   -0.032656
    3    0    3    3    1   -0.007702   -0.014139
    3    0    3    4    1    0.017191   -0.010073
    3    0    3    1    2   -0.033392    0.032656
    3    0    3    2    2   -0.012110   -0.000000
    3    0    3    3    2    0.002248   -0.009051
    3    0    3    4    2    0.035578   -0.013530
    3    0    3    1    3   -0.007702    0.014139
    3    0    3    2    3    0.002248    0.009051
    3    0    3    3    3    0.033123    0.000000
    3    0    3    4    3    0.011925    0.007055
    3    0    3    1    4    0.017191    0.010073
    3    0    3    2    4    0.035578    0.013530
    3    0    3    3    4    0.011925   -0.007055
    3    0    3    4    4    0.054481    0.000000
    3    1    1    1    1    0.139556   -0.013354
    3    1    1    2    1    0.036537    0.016147
    3    1    1    3    1   -0.037591    0.006546
    3    1    1    4    1   -0.013382    0.020741
    3    1    1    1    2   -0.039185   -0.030045
    3    1    1    2    2   -0.023313   -0.000610
    3    1    1    3    2    0.000390    0.021267
    3    1    1    4    2   -0.028973   -0.002018
    3    1    1    1    3    0.002210   -0.002075
    3    1    1    2    3   -0.019137   -0.008837
    3    1    1    3    3   -0.037348   -0.008081
    3    1    1    4    3   -0.039123   -0.031795
    3    1    1    1    4   -0.013872    0.008969
    3    1    1    2    4   -0.008251   -0.020890
    3    1    1    3    4    0.022033    0.008016
    3    1    1    4    4    0.081928    0.026179
    3    1    2    1    1    0.065648    0.008658
    3    1    2    2    1    0.012586   -0.014330
    3    1    2    3    1    0.016274    0.037464
    3    1    2    4    1   -0.001337   -0.020330
    3    1    2    1    2   -0.013728   -0.017672
    3    1    2    2    2    0.023571    0.015990
    3    1    2    3    2   -0.042828   -0.033106
    3    1    2    4    2    0.002167   -0.026229
    3    1    2    1    3    0.041014   -0.022318
    3    1    2    2    3   -0.028370    0.029366
    3    1    2    3    3    0.009294   -0.003580
    3    1    2    4    3   -0.003274   -0.010018
    3    1    2    1    4   -0.064575   -0.037306
    3    1    2    2    4    0.003116   -0.003233
    3    1    2    3    4   -0.033108   -0.010610
    3    1    2    4    4   -0.019375   -0.015813
    4   -3    1    1    1    0.096873    0.009201
    4   -3    1    2    1   -0.014698   -0.025893
    4   -3    1    3    1   -0.007677   -0.009735
    4   -3    1    4    1   -0.010169    0.005874
    4   -3    1    1    2    0.018683    0.004628
    4   -3    1    2    2   -0.027571    0.016537
    4   -3    1    3    2    0.005631    0.011452
    4   -3    1    4    2   -0.006456   -0.044205
    4   -3    1    1    3   -0.031120    0.004311
    4   -3    1    2    3   -0.006152    0.005484
    4   -3    1    3    3    0.051160    0.004805
    4   -3    1    4    3    0.024052   -0.029858
    4   -3    1    1    4    0.011750    0.023028
    4   -3    1    2    4   -0.002558    0.030422
    4   -3    1    3    4    0.010589    0.041096
    4   -3    1    4    4   -0.050987   -0.018149
    4   -3    2    1    1    0.117808   -0.006160
    4   -3    2    2    1   -0.008402    0.007000
    4   -3    2    3    1   -0.015986   -0.021149
    4   -3    2    4    1    0.006687    0.018749
    4   -3    2    1    2    0.005718    0.024355
    4   -3    2    2    2    0.019803   -0.017459
    4   -3    2    3    2    0.003307   -0.035162
    4   -3    2    4    2   -0.010366    0.002396
    4   -3    2    1    3   -0.033351   -0.032798
    4   -3    2    2    3    0.020755    0.009923
    4   -3    2    3    3    0.012369    0.023079
    4   -3    2    4    3   -0.021518    0.014627
    4   -3    2    1    4   -0.035606   -0.005616
    4   -3    2    2    4   -0.010117    0.015061
    4   -3    2    3    4    0.030677   -0.009773
    4   -3    2    4    4    0.011052    0.012652
    4   -2    1    1    1    0.092457   -0.000204
    4   -2    1    2    1    0.036235   -0.028395
    4   -2    1    3    1    0.023879   -0.045702
    4   -2    1    4    1    0.014987   -0.016751
    4   -2    1    1    2   -0.027732   -0.030798
    4   -2    1    2    2    0.046374    0.006735
    4   -2    1    3    2    0.010767   -0.032922
    4   -2    1    4    2    0.020030    0.023884
    4   -2    1    1    3   -0.002064   -0.021601
    4   -2    1    2    3   -0.002520    0.024304
    4   -2    1    3    3    0.004565    0.007556
    4   -2    1    4    3   -0.029451    0.008586
    4   -2    1    1    4   -0.018731   -0.004311
    4   -2    1    2    4    0.011836   -0.062437
    4   -2    1    3    4   -0.042085   -0.016947
    4   -2    1    4    4    0.019641   -0.015119
    4   -2    2    1    1    0.045484   -0.021408
    4   -2    2    2    1    0.027042    0.005319
    4   -2    2    3    1   -0.017521   -0.015651
    4   -2    2    4    1    0.036101    0.012420
    4   -2    2    1    2   -0.040662    0.005109
    4   -2    2    2    2    0.029044    0.006748
    4   -2    2    3    2    0.045243   -0.018944
    4   -2    2    4    2   -0.011865   -0.015335
    4   -2    2    1    3    0.005168   -0.018124
    4   -2    2    2    3    0.044070    0.035548
    4   -2    2    3    3    0.045912   -0.019898
    4   -2    2    4    3    0.000369   -0.012010
    4   -2    2    1    4   -0.018195    0.040647
    4   -2    2    2    4   -0.026778    0.017283
    4   -2    2    3    4   -0.015546    0.023482
    4   -2    2    4    4   -0.058606    0.027713
    4   -2    3    1    1    0.117286    0.010874
    4   -2    3    2    1    0.000835   -0.037904
    4   -2    3    3    1   -0.001644    0.010191
    4   -2    3    4    1   -0.033579   -0.021283
    4   -2    3    1    2   -0.010939    0.019640
    4   -2    3    2    2   -0.012892   -0.005604
    4   -2    3    3    2   -0.015698   -0.029297
    4   -2    3    4    2    0.020040   -0.036279
    4   -2    3    1    3   -0.005907   -0.009437
    4   -2    3    2    3   -0.001098    0.038077
    4   -2    3    3    3    0.080929    0.000616
    4   -2    3    4    3    0.019566    0.003647
    4   -2    3    1    4    0.021891   -0.006574
    4   -2    3    2    4    0.004975    0.004511
    4   -2    3    3    4    0.006925   -0.036816
    4   -2    3    4    4   -0.022728   -0.013130
    4   -1    2    1    1    0.143812    0.000019
    4   -1    2    2    1    0.009520    0.017748
    4   -1    2    3    1   -0.010399   -0.008691
    4   -1    2    4    1   -0.017443    0.024965
    4   -1    2    1    2    0.012901    0.004792
    4   -1    2    2    2   -0.006461   -0.025746
    4   -1    2    3    2   -0.018354   -0.042954
    4   -1    2    4    2   -0.011004   -0.013318
    4   -1    2    1    3    0.033804   -0.015648
    4   -1    2    2    3   -0.013739   -0.019856
    4   -1    2    3    3    0.055296    0.003188
    4   -1    2    4    3   -0.049661   -0.046562
    4   -1    2    1    4   -0.020521   -0.001175
    4   -1    2    2    4   -0.022935    0.061549
    4   -1    2    3    4    0.034523    0.023513
    4   -1    2    4    4   -0.031074    0.028933
    4   -1    3    1    1    0.070262   -0.000223
    4   -1    3    2    1   -0.033063    0.042886
    4   -1    3    3    1    0.020978    0.039265
    4   -1    3    4    1   -0.019172    0.007971
    4   -1    3    1    2   -0.010942   -0.019416
    4   -1    3    2    2    0.032268    0.016722
    4   -1    3    3    2    0.006246   -0.005366
    4   -1    3    4    2    0.003549    0.015066
    4   -1    3    1    3   -0.007604    0.028647
    4   -1    3    2    3    0.014022    0.022441
    4   -1    3    3    3   -0.003546    0.009270
    4   -1    3    4    3   -0.006464    0.005381
    4   -1    3    1    4   -0.016393   -0.014558
    4   -1    3    2    4   -0.003638   -0.017255
    4   -1    3    3    4   -0.027647    0.024513
    4   -1    3    4    4   -0.020051   -0.018945
