
     Program PWSCF v.6.6 starts on  3Nov2020 at 22:39: 8 

     This program is part of the open-source Quantum ESPRESSO suite
     for quantum simulation of materials; please cite
         "P. Giannozzi et al., J. Phys.:Condens. Matter 21 395502 (2009);
         "P. Giannozzi et al., J. Phys.:Condens. Matter 29 465901 (2017);
          URL http://www.quantum-espresso.org", 
     in publications or presentations arising from this work. More details at
     http://www.quantum-espresso.org/quote

     Parallel version (MPI), running on     8 processors

     MPI processes distributed on     1 nodes
     R & G space division:  proc/nbgrp/npool/nimage =       8
     Fft bands division:     nmany     =       1
     Reading input from scf.in

     Current dimensions of program PWSCF are:
     Max number of different atomic species (ntypx) = 10
     Max number of k-points (npk) =  40000
     Max angular momentum in pseudopotentials (lmaxx) =  3

     Subspace diagonalization in iterative solution of the eigenvalue problem:
     a serial algorithm will be used

 
     Parallelization info
     --------------------
     sticks:   dense  smooth     PW     G-vecs:    dense   smooth      PW
     Min         272     121     35                 8038     2383     387
     Max         273     122     36                 8041     2385     390
     Sum        2179     969    283                64315    19069    3103
 


     bravais-lattice index     =            3
     lattice parameter (alat)  =       6.4758  a.u.
     unit-cell volume          =     135.7815 (a.u.)^3
     number of atoms/cell      =            1
     number of atomic types    =            1
     number of electrons       =         3.00
     number of Kohn-Sham states=            6
     kinetic-energy cutoff     =     102.5120  Ry
     charge density cutoff     =     922.6080  Ry
     convergence threshold     =      1.0E-06
     mixing beta               =       0.7000
     number of iterations used =            8  plain     mixing
     Exchange-correlation=  SLA  PW   PBX  PBC
                           (   1   4   3   4   0   0   0)

     celldm(1)=   6.475751  celldm(2)=   0.000000  celldm(3)=   0.000000
     celldm(4)=   0.000000  celldm(5)=   0.000000  celldm(6)=   0.000000

     crystal axes: (cart. coord. in units of alat)
               a(1) = (   0.500000   0.500000   0.500000 )  
               a(2) = (  -0.500000   0.500000   0.500000 )  
               a(3) = (  -0.500000  -0.500000   0.500000 )  

     reciprocal axes: (cart. coord. in units 2 pi/alat)
               b(1) = (  1.000000  0.000000  1.000000 )  
               b(2) = ( -1.000000  1.000000  0.000000 )  
               b(3) = (  0.000000 -1.000000  1.000000 )  


     PseudoPot. # 1 for Li read from file:
     ~/pseudos/li_pbe_v1.4.uspp.F.UPF
     MD5 check sum: Not computed, couldn't open file
     Pseudo is Ultrasoft, Zval =  3.0
     Generated by new atomic code, or converted to UPF format
     Using radial grid of  751 points,  5 beta functions with: 
                l(1) =   0
                l(2) =   0
                l(3) =   0
                l(4) =   1
                l(5) =   1
     Q(r) pseudized with 10 coefficients,  rinner =    1.150   1.150   1.150


     atomic species   valence    mass     pseudopotential
        Li             3.00     6.94100     Li( 1.00)

     48 Sym. Ops., with inversion, found



   Cartesian axes

     site n.     atom                  positions (alat units)
         1           Li  tau(   1) = (   0.0000000   0.0000000   0.0000000  )

     number of k points=    16  Gaussian smearing, width (Ry)=  0.0100
                       cart. coord. in units 2pi/alat
        k(    1) = (   0.0000000   0.0000000   0.0000000), wk =   0.0092593
        k(    2) = (   0.0000000  -0.1666667   0.1666667), wk =   0.1111111
        k(    3) = (   0.0000000  -0.3333333   0.3333333), wk =   0.1111111
        k(    4) = (   0.0000000   0.5000000  -0.5000000), wk =   0.0555556
        k(    5) = (  -0.1666667  -0.1666667   0.3333333), wk =   0.2222222
        k(    6) = (  -0.1666667   0.6666667  -0.5000000), wk =   0.4444444
        k(    7) = (  -0.3333333   0.6666667  -0.3333333), wk =   0.0740741
        k(    8) = (   0.0000000   0.0000000   0.3333333), wk =   0.0555556
        k(    9) = (   0.0000000  -0.1666667   0.5000000), wk =   0.2222222
        k(   10) = (   0.0000000   0.6666667  -0.3333333), wk =   0.1111111
        k(   11) = (  -0.1666667   0.8333333  -0.3333333), wk =   0.2222222
        k(   12) = (   0.6666667  -0.6666667   0.3333333), wk =   0.0740741
        k(   13) = (   0.5000000  -0.5000000   0.3333333), wk =   0.1111111
        k(   14) = (   0.0000000   0.0000000   0.6666667), wk =   0.0555556
        k(   15) = (   0.0000000   0.8333333  -0.1666667), wk =   0.1111111
        k(   16) = (   0.0000000   0.0000000  -1.0000000), wk =   0.0092593

     Dense  grid:    64315 G-vectors     FFT dimensions: (  60,  60,  60)

     Smooth grid:    19069 G-vectors     FFT dimensions: (  40,  40,  40)

     Estimated max dynamical RAM per process >      13.33 MB

     Estimated total dynamical RAM >     106.60 MB

     Initial potential from superposition of free atoms

     starting charge    2.54926, renormalised to    3.00000
     Starting wfcs are    5 randomized atomic wfcs +    1 random wfcs

     total cpu time spent up to now is        0.3 secs

     Self-consistent Calculation

     iteration #  1     ecut=   102.51 Ry     beta= 0.70
     Davidson diagonalization with overlap
     ethr =  1.00E-02,  avg # of iterations =  5.9

     total cpu time spent up to now is        0.6 secs

     total energy              =     -14.46579592 Ry
     estimated scf accuracy    <       0.16175457 Ry

     iteration #  2     ecut=   102.51 Ry     beta= 0.70
     Davidson diagonalization with overlap
     ethr =  5.39E-03,  avg # of iterations =  1.0

     total cpu time spent up to now is        0.7 secs

     total energy              =     -14.46835013 Ry
     estimated scf accuracy    <       0.00768546 Ry

     iteration #  3     ecut=   102.51 Ry     beta= 0.70
     Davidson diagonalization with overlap
     ethr =  2.56E-04,  avg # of iterations =  2.4

     total cpu time spent up to now is        0.9 secs

     total energy              =     -14.46984441 Ry
     estimated scf accuracy    <       0.00002107 Ry

     iteration #  4     ecut=   102.51 Ry     beta= 0.70
     Davidson diagonalization with overlap
     ethr =  7.02E-07,  avg # of iterations =  8.1

     total cpu time spent up to now is        1.2 secs

     total energy              =     -14.46995018 Ry
     estimated scf accuracy    <       0.00000627 Ry

     iteration #  5     ecut=   102.51 Ry     beta= 0.70
     Davidson diagonalization with overlap
     ethr =  2.09E-07,  avg # of iterations =  1.7

     total cpu time spent up to now is        1.4 secs

     total energy              =     -14.46995013 Ry
     estimated scf accuracy    <       0.00000143 Ry

     iteration #  6     ecut=   102.51 Ry     beta= 0.70
     Davidson diagonalization with overlap
     ethr =  4.78E-08,  avg # of iterations =  1.4

     total cpu time spent up to now is        1.6 secs

     End of self-consistent calculation

          k = 0.0000 0.0000 0.0000 (  2347 PWs)   bands (ev):

   -45.5393  -2.6178  15.6524  15.6524  15.6524  20.4502

          k = 0.0000-0.1667 0.1667 (  2373 PWs)   bands (ev):

   -45.5343  -2.0894  12.3824  13.8817  14.8082  17.4866

          k = 0.0000-0.3333 0.3333 (  2379 PWs)   bands (ev):

   -45.5244  -0.5230   7.2437  12.0354  13.4218  15.3739

          k = 0.0000 0.5000-0.5000 (  2390 PWs)   bands (ev):

   -45.5194   1.2089   4.2317  11.3842  12.8621  14.6665

          k =-0.1667-0.1667 0.3333 (  2377 PWs)   bands (ev):

   -45.5269  -1.0295   9.4787  10.6364  12.9515  17.8282

          k =-0.1667 0.6667-0.5000 (  2372 PWs)   bands (ev):

   -45.5194   0.9921   5.3128   9.1400  11.9198  17.8849

          k =-0.3333 0.6667-0.3333 (  2385 PWs)   bands (ev):

   -45.5170   3.3057   3.3057   7.1025  11.6231  20.2234

          k = 0.0000 0.0000 0.3333 (  2379 PWs)   bands (ev):

   -45.5298  -1.5518  11.8043  11.8043  14.2660  14.4613

          k = 0.0000-0.1667 0.5000 (  2380 PWs)   bands (ev):

   -45.5206   0.0490   7.5486   9.8547  13.1290  14.8587

          k = 0.0000 0.6667-0.3333 (  2394 PWs)   bands (ev):

   -45.5160   1.9039   4.4830   9.1813  12.7004  16.4521

          k =-0.1667 0.8333-0.3333 (  2399 PWs)   bands (ev):

   -45.5143   2.1536   5.3532   7.5386  13.9806  14.0993

          k = 0.6667-0.6667 0.3333 (  2358 PWs)   bands (ev):

   -45.5211   0.5555   7.4813   7.4813  10.3000  21.1710

          k = 0.5000-0.5000 0.3333 (  2374 PWs)   bands (ev):

   -45.5183   2.6126   4.3274   6.7994   9.8198  22.1805

          k = 0.0000 0.0000 0.6667 (  2390 PWs)   bands (ev):

   -45.5130   1.7476   7.8753   7.8753  10.1956  13.4256

          k = 0.0000 0.8333-0.1667 (  2394 PWs)   bands (ev):

   -45.5092   3.9597   5.3838   7.1956  10.7893  12.7275

          k = 0.0000 0.0000-1.0000 (  2382 PWs)   bands (ev):

   -45.5058   6.5145   6.5145   6.5145   8.7735   8.7735

     the Fermi energy is     0.9767 ev

!    total energy              =     -14.46995022 Ry
     estimated scf accuracy    <          2.1E-09 Ry
     smearing contrib. (-TS)   =      -0.00124639 Ry
     internal energy E=F+TS    =     -14.46870383 Ry

     The total energy is F=E-TS. E is the sum of the following terms:
     one-electron contribution =      -9.68875036 Ry
     hartree contribution      =       3.65583121 Ry
     xc contribution           =      -3.37797755 Ry
     ewald contribution        =      -5.05780714 Ry

     convergence has been achieved in   6 iterations

     Writing output data file ./outdir/Li.save/
 
     init_run     :      0.22s CPU      0.25s WALL (       1 calls)
     electrons    :      1.19s CPU      1.31s WALL (       1 calls)

     Called by init_run:
     wfcinit      :      0.03s CPU      0.04s WALL (       1 calls)
     potinit      :      0.05s CPU      0.05s WALL (       1 calls)
     hinit0       :      0.03s CPU      0.04s WALL (       1 calls)

     Called by electrons:
     c_bands      :      0.61s CPU      0.69s WALL (       6 calls)
     sum_band     :      0.21s CPU      0.22s WALL (       6 calls)
     v_of_rho     :      0.27s CPU      0.28s WALL (       7 calls)
     newd         :      0.09s CPU      0.10s WALL (       7 calls)
     mix_rho      :      0.03s CPU      0.03s WALL (       6 calls)

     Called by c_bands:
     init_us_2    :      0.02s CPU      0.02s WALL (     208 calls)
     cegterg      :      0.58s CPU      0.65s WALL (      96 calls)

     Called by *egterg:
     cdiaghg      :      0.03s CPU      0.03s WALL (     423 calls)
     h_psi        :      0.50s CPU      0.57s WALL (     439 calls)
     s_psi        :      0.01s CPU      0.01s WALL (     439 calls)
     g_psi        :      0.00s CPU      0.00s WALL (     327 calls)

     Called by h_psi:
     h_psi:calbec :      0.03s CPU      0.04s WALL (     439 calls)
     vloc_psi     :      0.46s CPU      0.51s WALL (     439 calls)
     add_vuspsi   :      0.01s CPU      0.01s WALL (     439 calls)

     General routines
     calbec       :      0.04s CPU      0.04s WALL (     535 calls)
     fft          :      0.16s CPU      0.17s WALL (      88 calls)
     ffts         :      0.00s CPU      0.00s WALL (      13 calls)
     fftw         :      0.47s CPU      0.53s WALL (    4026 calls)
     interpolate  :      0.02s CPU      0.02s WALL (       7 calls)
 
     Parallel routines
     fft_scatt_xy :      0.07s CPU      0.07s WALL (    4127 calls)
     fft_scatt_yz :      0.21s CPU      0.24s WALL (    4127 calls)
 
     PWSCF        :      1.47s CPU      1.65s WALL

 
   This run was terminated on:  22:39:10   3Nov2020            

=------------------------------------------------------------------------------=
   JOB DONE.
=------------------------------------------------------------------------------=
