
     Program PWSCF v.6.6 starts on  5Sep2020 at 19:46: 9 

     This program is part of the open-source Quantum ESPRESSO suite
     for quantum simulation of materials; please cite
         "P. Giannozzi et al., J. Phys.:Condens. Matter 21 395502 (2009);
         "P. Giannozzi et al., J. Phys.:Condens. Matter 29 465901 (2017);
          URL http://www.quantum-espresso.org", 
     in publications or presentations arising from this work. More details at
     http://www.quantum-espresso.org/quote

     Parallel version (MPI), running on    44 processors

     MPI processes distributed on     1 nodes
     R & G space division:  proc/nbgrp/npool/nimage =      44
     Fft bands division:     nmany     =       1
     Reading input from 1-scf.in

     Current dimensions of program PWSCF are:
     Max number of different atomic species (ntypx) = 10
     Max number of k-points (npk) =  40000
     Max angular momentum in pseudopotentials (lmaxx) =  3
     file Nb.pbe-spn-kjpaw_psl.0.3.0.UPF: wavefunction(s)  4S 4P renormalized

     Subspace diagonalization in iterative solution of the eigenvalue problem:
     a serial algorithm will be used

     Found symmetry operation: I + ( -0.0000  0.3333  0.0000)
     This is a supercell, fractional translations are disabled
 
     Parallelization info
     --------------------
     sticks:   dense  smooth     PW     G-vecs:    dense   smooth      PW
     Min         141      73     19                20035     7547    1039
     Max         142      74     20                20043     7556    1052
     Sum        6205    3253    859               881733   332337   45913
 


     bravais-lattice index     =            4
     lattice parameter (alat)  =      19.7820  a.u.
     unit-cell volume          =   14965.4900 (a.u.)^3
     number of atoms/cell      =           27
     number of atomic types    =            2
     number of electrons       =       225.00
     number of Kohn-Sham states=          136
     kinetic-energy cutoff     =      30.0000  Ry
     charge density cutoff     =     230.0000  Ry
     convergence threshold     =      1.0E-06
     mixing beta               =       0.4000
     number of iterations used =            8  plain     mixing
     Exchange-correlation= SLA  PW   PBE  PBE
                           (   1   4   3   4   0   0   0)

     celldm(1)=  19.782031  celldm(2)=   0.000000  celldm(3)=   2.232275
     celldm(4)=   0.000000  celldm(5)=   0.000000  celldm(6)=   0.000000

     crystal axes: (cart. coord. in units of alat)
               a(1) = (   1.000000   0.000000   0.000000 )  
               a(2) = (  -0.500000   0.866025   0.000000 )  
               a(3) = (   0.000000   0.000000   2.232275 )  

     reciprocal axes: (cart. coord. in units 2 pi/alat)
               b(1) = (  1.000000  0.577350  0.000000 )  
               b(2) = (  0.000000  1.154701  0.000000 )  
               b(3) = (  0.000000  0.000000  0.447974 )  


     PseudoPot. # 1 for Nb read from file:
     /home/sinan/q-e/SSSP_precision_pseudos/Nb.pbe-spn-kjpaw_psl.0.3.0.UPF
     MD5 check sum: 411d72ad547312f8017e2943ceca08cc
     Pseudo is Projector augmented-wave + core cor, Zval = 13.0
     Generated using "atomic" code by A. Dal Corso v.5.0.99 svn rev. 10869
     Shape of augmentation charge: PSQ
     Using radial grid of 1227 points,  6 beta functions with: 
                l(1) =   0
                l(2) =   0
                l(3) =   1
                l(4) =   1
                l(5) =   2
                l(6) =   2
     Q(r) pseudized with 0 coefficients 


     PseudoPot. # 2 for Se read from file:
     /home/sinan/q-e/SSSP_precision_pseudos/Se_pbe_v1.uspp.F.UPF
     MD5 check sum: 1b3568f3a8ae88f9a2a0ad0698632c85
     Pseudo is Ultrasoft + core correction, Zval =  6.0
     Generated by new atomic code, or converted to UPF format
     Using radial grid of  877 points,  6 beta functions with: 
                l(1) =   0
                l(2) =   0
                l(3) =   1
                l(4) =   1
                l(5) =   2
                l(6) =   2
     Q(r) pseudized with  8 coefficients,  rinner =    1.300   1.300   1.300
                                                       1.300   1.300

     atomic species   valence    mass     pseudopotential
        Nb            13.00    92.90638     Nb( 1.00)
        Se             6.00    78.96000     Se( 1.00)

     12 Sym. Ops. (no inversion) found



   Cartesian axes

     site n.     atom                  positions (alat units)
         1           Se  tau(   1) = (   0.0000000   0.1924503   1.2770040  )
         2           Nb  tau(   2) = (   0.0000000   0.0000000   1.1161391  )
         3           Se  tau(   3) = (   0.0000000   0.1924503   0.9552741  )
         4           Se  tau(   4) = (  -0.1666667   0.4811254   1.2770040  )
         5           Nb  tau(   5) = (  -0.1666667   0.2886751   1.1161391  )
         6           Se  tau(   6) = (  -0.1666667   0.4811254   0.9552741  )
         7           Se  tau(   7) = (  -0.3333333   0.7698005   1.2770040  )
         8           Nb  tau(   8) = (  -0.3333333   0.5773503   1.1161391  )
         9           Se  tau(   9) = (  -0.3333333   0.7698005   0.9552741  )
        10           Se  tau(  10) = (   0.3333333   0.1924503   1.2770040  )
        11           Nb  tau(  11) = (   0.3333333   0.0000000   1.1161391  )
        12           Se  tau(  12) = (   0.3333333   0.1924503   0.9552741  )
        13           Se  tau(  13) = (   0.1666667   0.4811254   1.2770040  )
        14           Nb  tau(  14) = (   0.1666667   0.2886751   1.1161391  )
        15           Se  tau(  15) = (   0.1666667   0.4811254   0.9552741  )
        16           Se  tau(  16) = (   0.0000000   0.7698005   1.2770040  )
        17           Nb  tau(  17) = (   0.0000000   0.5773503   1.1161391  )
        18           Se  tau(  18) = (   0.0000000   0.7698005   0.9552741  )
        19           Se  tau(  19) = (   0.6666667   0.1924503   1.2770040  )
        20           Nb  tau(  20) = (   0.6666667   0.0000000   1.1161391  )
        21           Se  tau(  21) = (   0.6666667   0.1924503   0.9552741  )
        22           Se  tau(  22) = (   0.5000000   0.4811254   1.2770040  )
        23           Nb  tau(  23) = (   0.5000000   0.2886751   1.1161391  )
        24           Se  tau(  24) = (   0.5000000   0.4811254   0.9552741  )
        25           Se  tau(  25) = (   0.3333333   0.7698005   1.2770040  )
        26           Nb  tau(  26) = (   0.3333333   0.5773503   1.1161391  )
        27           Se  tau(  27) = (   0.3333333   0.7698005   0.9552741  )

     number of k points=     4  Gaussian smearing, width (Ry)=  0.0500
                       cart. coord. in units 2pi/alat
        k(    1) = (   0.0000000   0.0000000   0.0000000), wk =   0.1250000
        k(    2) = (   0.0000000   0.2886751   0.0000000), wk =   0.7500000
        k(    3) = (   0.0000000  -0.5773503   0.0000000), wk =   0.3750000
        k(    4) = (   0.2500000   0.4330127   0.0000000), wk =   0.7500000

     Dense  grid:   881733 G-vectors     FFT dimensions: (  96,  96, 216)

     Smooth grid:   332337 G-vectors     FFT dimensions: (  72,  72, 160)

     Estimated max dynamical RAM per process >      93.60 MB

     Estimated total dynamical RAM >       4.02 GB

     Check: negative core charge=   -0.000003

     Initial potential from superposition of free atoms

     starting charge  224.97965, renormalised to  225.00000

     negative rho (up, down):  2.116E-02 0.000E+00
     Starting wfcs are  162 randomized atomic wfcs
     Checking if some PAW data can be deallocated... 

     total cpu time spent up to now is        7.1 secs

     Self-consistent Calculation

     iteration #  1     ecut=    30.00 Ry     beta= 0.40
     Davidson diagonalization with overlap
     ethr =  1.00E-02,  avg # of iterations =  2.0

     negative rho (up, down):  1.930E-02 0.000E+00

     total cpu time spent up to now is       15.4 secs

     total energy              =   -3793.65615940 Ry
     estimated scf accuracy    <       3.91231176 Ry

     iteration #  2     ecut=    30.00 Ry     beta= 0.40
     Davidson diagonalization with overlap
     ethr =  1.74E-03,  avg # of iterations =  5.0

     negative rho (up, down):  1.953E-02 0.000E+00

     total cpu time spent up to now is       25.3 secs

     total energy              =   -3793.65650456 Ry
     estimated scf accuracy    <       9.86317017 Ry

     iteration #  3     ecut=    30.00 Ry     beta= 0.40
     Davidson diagonalization with overlap
     ethr =  1.74E-03,  avg # of iterations =  3.0

     negative rho (up, down):  1.935E-02 0.000E+00

     total cpu time spent up to now is       33.8 secs

     total energy              =   -3794.99685055 Ry
     estimated scf accuracy    <       0.16008861 Ry

     iteration #  4     ecut=    30.00 Ry     beta= 0.40
     Davidson diagonalization with overlap
     ethr =  7.12E-05,  avg # of iterations =  5.2

     negative rho (up, down):  1.938E-02 0.000E+00

     total cpu time spent up to now is       43.2 secs

     total energy              =   -3795.00519438 Ry
     estimated scf accuracy    <       0.07457231 Ry

     iteration #  5     ecut=    30.00 Ry     beta= 0.40
     Davidson diagonalization with overlap
     ethr =  3.31E-05,  avg # of iterations =  4.8

     negative rho (up, down):  1.937E-02 0.000E+00

     total cpu time spent up to now is       51.9 secs

     total energy              =   -3795.01738778 Ry
     estimated scf accuracy    <       0.00776137 Ry

     iteration #  6     ecut=    30.00 Ry     beta= 0.40
     Davidson diagonalization with overlap
     ethr =  3.45E-06,  avg # of iterations =  6.8

     negative rho (up, down):  1.940E-02 0.000E+00

     total cpu time spent up to now is       61.9 secs

     total energy              =   -3795.01750608 Ry
     estimated scf accuracy    <       0.01185906 Ry

     iteration #  7     ecut=    30.00 Ry     beta= 0.40
     Davidson diagonalization with overlap
     ethr =  3.45E-06,  avg # of iterations =  2.0

     negative rho (up, down):  1.937E-02 0.000E+00

     total cpu time spent up to now is       69.7 secs

     total energy              =   -3795.01800577 Ry
     estimated scf accuracy    <       0.00404037 Ry

     iteration #  8     ecut=    30.00 Ry     beta= 0.40
     Davidson diagonalization with overlap
     ethr =  1.80E-06,  avg # of iterations =  2.0

     negative rho (up, down):  1.934E-02 0.000E+00

     total cpu time spent up to now is       77.3 secs

     total energy              =   -3795.01811742 Ry
     estimated scf accuracy    <       0.00063410 Ry

     iteration #  9     ecut=    30.00 Ry     beta= 0.40
     Davidson diagonalization with overlap
     ethr =  2.82E-07,  avg # of iterations =  4.5

     negative rho (up, down):  1.932E-02 0.000E+00

     total cpu time spent up to now is       87.3 secs

     total energy              =   -3795.01839414 Ry
     estimated scf accuracy    <       0.00020984 Ry

     iteration # 10     ecut=    30.00 Ry     beta= 0.40
     Davidson diagonalization with overlap
     ethr =  9.33E-08,  avg # of iterations =  4.0

     negative rho (up, down):  1.931E-02 0.000E+00

     total cpu time spent up to now is       96.0 secs

     total energy              =   -3795.01839007 Ry
     estimated scf accuracy    <       0.00013974 Ry

     iteration # 11     ecut=    30.00 Ry     beta= 0.40
     Davidson diagonalization with overlap
     ethr =  6.21E-08,  avg # of iterations =  2.0

     negative rho (up, down):  1.930E-02 0.000E+00

     total cpu time spent up to now is      104.3 secs

     total energy              =   -3795.01839121 Ry
     estimated scf accuracy    <       0.00002726 Ry

     iteration # 12     ecut=    30.00 Ry     beta= 0.40
     Davidson diagonalization with overlap
     ethr =  1.21E-08,  avg # of iterations =  4.0

     negative rho (up, down):  1.929E-02 0.000E+00

     total cpu time spent up to now is      113.8 secs

     End of self-consistent calculation

          k = 0.0000 0.0000 0.0000 ( 41489 PWs)   bands (ev):

   -56.7074 -56.6933 -56.6930 -56.6930 -56.6930 -56.6930 -56.6927 -56.6858
   -56.6858 -32.8500 -32.8500 -32.8477 -32.8477 -32.8476 -32.8476 -32.8475
   -32.8475 -32.8176 -32.8176 -32.7730 -32.7350 -32.7348 -32.7348 -32.7348
   -32.7348 -32.7346 -32.7157 -32.7157 -32.7143 -32.7143 -32.7142 -32.7141
   -32.7140 -32.7140 -32.6746 -32.6746 -15.1265 -14.1869 -14.1869 -14.1869
   -14.1865 -14.1865 -14.1865 -14.1775 -13.7511 -13.7511 -13.7511 -13.7508
   -13.7508 -13.7508 -13.6231 -13.6231 -13.4808 -13.4808  -6.3939  -5.9259
    -5.9259  -5.9259  -5.9258  -5.9258  -5.9258  -5.9108  -5.9108  -5.4838
    -5.4838  -5.0685  -5.0685  -5.0685  -5.0684  -5.0683  -5.0683  -5.0142
    -5.0142  -5.0021  -5.0020  -5.0020  -5.0019  -5.0019  -5.0018  -4.6727
    -4.6727  -4.0405  -4.0405  -3.6804  -3.6804  -3.6804  -3.6803  -3.6803
    -3.6803  -3.4282  -3.4281  -3.2311  -3.2311  -2.9697  -2.8634  -2.8634
    -2.8634  -2.8632  -2.8632  -2.8632  -2.5994  -2.5993  -2.5993  -2.5992
    -2.5992  -2.5991  -2.4790  -2.4789  -1.9321  -1.9320  -1.9320  -1.9320
    -1.9320  -1.9320  -1.0642  -1.0642  -0.9994   0.3111   0.3111   0.8398
     0.8398   0.8398   0.8399   0.8399   0.8399   0.9727   0.9727   0.9727
     0.9727   0.9727   0.9727   1.2879   1.2879   1.4621   1.4621   1.7021

          k = 0.0000 0.2887 0.0000 ( 41486 PWs)   bands (ev):

   -56.7061 -56.6979 -56.6948 -56.6948 -56.6907 -56.6907 -56.6894 -56.6863
   -56.6863 -32.8889 -32.8688 -32.8688 -32.8653 -32.8653 -32.8217 -32.8217
   -32.7925 -32.7925 -32.7907 -32.7696 -32.7476 -32.7395 -32.7395 -32.7285
   -32.7284 -32.7281 -32.7281 -32.7254 -32.7238 -32.7174 -32.7174 -32.7146
   -32.7146 -32.7011 -32.6904 -32.6782 -15.0514 -14.5282 -14.3170 -14.3170
   -14.1432 -14.0039 -14.0039 -13.9110 -13.9046 -13.8083 -13.8083 -13.6752
   -13.6752 -13.6678 -13.6678 -13.6292 -13.5076 -13.5076  -6.3528  -6.2923
    -6.0995  -6.0995  -5.8205  -5.8205  -5.8127  -5.8127  -5.7199  -5.6944
    -5.6944  -5.4455  -5.2746  -5.2746  -5.0889  -5.0889  -4.9769  -4.9768
    -4.9627  -4.9408  -4.8062  -4.8062  -4.7140  -4.7140  -4.3955  -4.3638
    -4.3638  -4.0963  -4.0963  -3.9428  -3.9428  -3.8924  -3.7825  -3.7825
    -3.6858  -3.3551  -3.3532  -3.2536  -3.1143  -3.1143  -2.9771  -2.9011
    -2.9011  -2.8663  -2.8575  -2.8575  -2.8517  -2.8517  -2.6548  -2.6246
    -2.6118  -2.6117  -2.4227  -2.3716  -1.8872  -1.7963  -1.7963  -1.7891
    -1.7891  -1.6867  -1.2446  -1.2446  -1.0611   0.5344   0.5344   0.6963
     0.6964   0.8149   0.8179   0.8179   0.8587   0.9354   1.0253   1.0253
     1.1113   1.1113   1.1221   1.1765   1.1892   1.2849   1.3651   1.4470

          k = 0.0000-0.5774 0.0000 ( 41552 PWs)   bands (ev):

   -56.7027 -56.7025 -56.6955 -56.6955 -56.6885 -56.6882 -56.6882 -56.6882
   -56.6880 -32.9041 -32.8756 -32.8756 -32.8755 -32.8754 -32.8086 -32.8086
   -32.7603 -32.7602 -32.7567 -32.7567 -32.7565 -32.7565 -32.7413 -32.7413
   -32.7332 -32.7330 -32.7273 -32.7223 -32.7221 -32.7221 -32.7220 -32.7219
   -32.7185 -32.7185 -32.6880 -32.6878 -14.8391 -14.8389 -14.3639 -14.3639
   -14.0462 -14.0460 -13.8286 -13.8286 -13.8160 -13.8160 -13.8158 -13.8157
   -13.8032 -13.5824 -13.5782 -13.5781 -13.5779 -13.5779  -6.5236  -6.0810
    -6.0809  -6.0808  -6.0808  -6.0186  -6.0184  -5.6077  -5.5942  -5.5942
    -5.5646  -5.5646  -5.5645  -5.5645  -5.0614  -5.0614  -4.9402  -4.8670
    -4.8670  -4.8669  -4.8668  -4.5105  -4.5105  -4.2956  -4.2955  -4.1179
    -4.1179  -4.1179  -4.1178  -3.9884  -3.9884  -3.9653  -3.7777  -3.7776
    -3.5681  -3.5681  -3.5680  -3.5680  -3.1467  -3.1466  -3.0994  -3.0993
    -3.0108  -2.9684  -2.9683  -2.9233  -2.9233  -2.9232  -2.9231  -2.4210
    -2.4209  -2.4133  -2.4132  -2.3642  -1.7975  -1.7223  -1.7223  -1.5342
    -1.5342  -1.5342  -1.5341  -1.3018  -1.3018   0.5996   0.5996   0.8286
     0.8287   0.8291   0.8292   0.8604   0.8604   0.8862   1.0277   1.0278
     1.0684   1.0684   1.1440   1.1441   1.1452   1.1452   1.2750   1.2952

          k = 0.2500 0.4330 0.0000 ( 41541 PWs)   bands (ev):

   -56.7037 -56.6997 -56.6995 -56.6914 -56.6912 -56.6884 -56.6882 -56.6880
   -56.6871 -32.8958 -32.8957 -32.8856 -32.8621 -32.8479 -32.8477 -32.7701
   -32.7669 -32.7669 -32.7632 -32.7627 -32.7523 -32.7522 -32.7401 -32.7399
   -32.7359 -32.7358 -32.7303 -32.7302 -32.7222 -32.7221 -32.7220 -32.7191
   -32.7189 -32.6991 -32.6991 -32.6856 -14.9076 -14.6455 -14.6453 -14.0774
   -14.0586 -14.0584 -13.9577 -13.9575 -13.8200 -13.8076 -13.8074 -13.7222
   -13.6888 -13.6886 -13.5811 -13.5809 -13.5766 -13.5355  -6.3958  -6.3957
    -6.1839  -6.1029  -5.8714  -5.8116  -5.8115  -5.7933  -5.7932  -5.7273
    -5.5950  -5.5949  -5.5468  -5.1133  -5.1132  -4.9689  -4.9687  -4.9213
    -4.9212  -4.8649  -4.8082  -4.7112  -4.7112  -4.1770  -4.1302  -4.1301
    -4.1062  -4.0892  -4.0832  -4.0831  -4.0113  -4.0113  -3.9814  -3.6184
    -3.5902  -3.4718  -3.4717  -3.3655  -3.3654  -3.2246  -3.0447  -3.0361
    -3.0361  -2.9889  -2.9888  -2.9821  -2.8817  -2.8221  -2.8220  -2.6535
    -2.6534  -2.3680  -2.3679  -2.2881  -1.7131  -1.7131  -1.6412  -1.6412
    -1.5279  -1.5279  -1.5066  -1.4026  -1.2129   0.7222   0.7222   0.7331
     0.7332   0.7484   0.7863   0.8870   0.8883   0.9200   0.9675   1.0253
     1.0253   1.0360   1.0360   1.1209   1.1209   1.1992   1.2698   1.4691

     the Fermi energy is    -1.5468 ev

!    total energy              =   -3795.01839635 Ry
     estimated scf accuracy    <       0.00000046 Ry
     smearing contrib. (-TS)   =      -0.25454634 Ry
     internal energy E=F+TS    =   -3794.76385001 Ry

     The total energy is F=E-TS. E is the sum of the following terms:
     one-electron contribution =   -9304.58034329 Ry
     hartree contribution      =    4666.59769016 Ry
     xc contribution           =    -794.55614823 Ry
     ewald contribution        =    3514.11684541 Ry
     one-center paw contrib.   =   -1876.34189407 Ry

     convergence has been achieved in  12 iterations

     Writing output data file ./outdir/nbse2.save/
 
     init_run     :      5.03s CPU      5.67s WALL (       1 calls)
     electrons    :     93.40s CPU    106.77s WALL (       1 calls)

     Called by init_run:
     wfcinit      :      2.14s CPU      2.32s WALL (       1 calls)
     potinit      :      0.54s CPU      0.57s WALL (       1 calls)
     hinit0       :      1.10s CPU      1.18s WALL (       1 calls)

     Called by electrons:
     c_bands      :     70.40s CPU     75.43s WALL (      12 calls)
     sum_band     :     14.38s CPU     19.26s WALL (      12 calls)
     v_of_rho     :      1.76s CPU      1.89s WALL (      13 calls)
     newd         :      4.58s CPU      7.97s WALL (      13 calls)
     PAW_pot      :      2.10s CPU      2.27s WALL (      13 calls)
     mix_rho      :      0.47s CPU      0.50s WALL (      12 calls)

     Called by c_bands:
     init_us_2    :      2.05s CPU      2.08s WALL (     100 calls)
     cegterg      :     65.74s CPU     70.72s WALL (      48 calls)

     Called by *egterg:
     cdiaghg      :      6.08s CPU      6.10s WALL (     229 calls)
     h_psi        :     34.99s CPU     38.14s WALL (     233 calls)
     s_psi        :      7.09s CPU      7.19s WALL (     233 calls)
     g_psi        :      0.18s CPU      0.18s WALL (     181 calls)

     Called by h_psi:
     h_psi:calbec :      8.52s CPU      8.80s WALL (     233 calls)
     vloc_psi     :     18.94s CPU     21.40s WALL (     233 calls)
     add_vuspsi   :      7.10s CPU      7.26s WALL (     233 calls)

     General routines
     calbec       :     11.66s CPU     12.03s WALL (     281 calls)
     fft          :      1.24s CPU      1.46s WALL (     167 calls)
     ffts         :      0.04s CPU      0.04s WALL (      25 calls)
     fftw         :     20.20s CPU     23.04s WALL (   39144 calls)
     interpolate  :      0.16s CPU      0.16s WALL (      13 calls)
 
     Parallel routines
     fft_scatt_xy :      2.63s CPU      2.76s WALL (   39336 calls)
     fft_scatt_yz :      8.00s CPU     10.19s WALL (   39336 calls)
 
     PWSCF        :   1m40.16s CPU   1m54.58s WALL

 
   This run was terminated on:  19:48: 3   5Sep2020            

=------------------------------------------------------------------------------=
   JOB DONE.
=------------------------------------------------------------------------------=
