
     Program PWSCF v.6.6 starts on  5Sep2020 at 21:14:32 

     This program is part of the open-source Quantum ESPRESSO suite
     for quantum simulation of materials; please cite
         "P. Giannozzi et al., J. Phys.:Condens. Matter 21 395502 (2009);
         "P. Giannozzi et al., J. Phys.:Condens. Matter 29 465901 (2017);
          URL http://www.quantum-espresso.org", 
     in publications or presentations arising from this work. More details at
     http://www.quantum-espresso.org/quote

     Parallel version (MPI), running on    44 processors

     MPI processes distributed on     1 nodes
     R & G space division:  proc/nbgrp/npool/nimage =      44
     Fft bands division:     nmany     =       1
     Reading input from 2-bands.in

     Current dimensions of program PWSCF are:
     Max number of different atomic species (ntypx) = 10
     Max number of k-points (npk) =  40000
     Max angular momentum in pseudopotentials (lmaxx) =  3

     Atomic positions and unit cell read from directory:
     ./outdir/nbse2.save/
     Atomic positions from file used, from input discarded
 
     file Nb.pbe-spn-kjpaw_psl.0.3.0.UPF: wavefunction(s)  4S 4P renormalized

     Subspace diagonalization in iterative solution of the eigenvalue problem:
     a serial algorithm will be used

     Found symmetry operation: I + ( -0.0000  0.3333  0.0000)
     This is a supercell, fractional translations are disabled
 
     Parallelization info
     --------------------
     sticks:   dense  smooth     PW     G-vecs:    dense   smooth      PW
     Min         141      61     16                20035     5743     810
     Max         142      62     17                20043     5752     817
     Sum        6205    2713    745               881733   252933   35857
 


     bravais-lattice index     =            4
     lattice parameter (alat)  =      19.7820  a.u.
     unit-cell volume          =   14965.4900 (a.u.)^3
     number of atoms/cell      =           27
     number of atomic types    =            2
     number of electrons       =       225.00
     number of Kohn-Sham states=          189
     kinetic-energy cutoff     =      25.0000  Ry
     charge density cutoff     =     230.0000  Ry
     Exchange-correlation= SLA  PW   PBE  PBE
                           (   1   4   3   4   0   0   0)

     celldm(1)=  19.782031  celldm(2)=   0.000000  celldm(3)=   2.232275
     celldm(4)=   0.000000  celldm(5)=   0.000000  celldm(6)=   0.000000

     crystal axes: (cart. coord. in units of alat)
               a(1) = (   1.000000   0.000000   0.000000 )  
               a(2) = (  -0.500000   0.866025   0.000000 )  
               a(3) = (   0.000000   0.000000   2.232275 )  

     reciprocal axes: (cart. coord. in units 2 pi/alat)
               b(1) = (  1.000000  0.577350  0.000000 )  
               b(2) = (  0.000000  1.154701  0.000000 )  
               b(3) = (  0.000000  0.000000  0.447974 )  


     PseudoPot. # 1 for Nb read from file:
     /home/sinan/q-e/SSSP_precision_pseudos/Nb.pbe-spn-kjpaw_psl.0.3.0.UPF
     MD5 check sum: 411d72ad547312f8017e2943ceca08cc
     Pseudo is Projector augmented-wave + core cor, Zval = 13.0
     Generated using "atomic" code by A. Dal Corso v.5.0.99 svn rev. 10869
     Shape of augmentation charge: PSQ
     Using radial grid of 1227 points,  6 beta functions with: 
                l(1) =   0
                l(2) =   0
                l(3) =   1
                l(4) =   1
                l(5) =   2
                l(6) =   2
     Q(r) pseudized with 0 coefficients 


     PseudoPot. # 2 for Se read from file:
     /home/sinan/q-e/SSSP_precision_pseudos/Se_pbe_v1.uspp.F.UPF
     MD5 check sum: 1b3568f3a8ae88f9a2a0ad0698632c85
     Pseudo is Ultrasoft + core correction, Zval =  6.0
     Generated by new atomic code, or converted to UPF format
     Using radial grid of  877 points,  6 beta functions with: 
                l(1) =   0
                l(2) =   0
                l(3) =   1
                l(4) =   1
                l(5) =   2
                l(6) =   2
     Q(r) pseudized with  8 coefficients,  rinner =    1.300   1.300   1.300
                                                       1.300   1.300

     atomic species   valence    mass     pseudopotential
        Nb            13.00    92.90638     Nb( 1.00)
        Se             6.00    78.96000     Se( 1.00)

     12 Sym. Ops. (no inversion) found



   Cartesian axes

     site n.     atom                  positions (alat units)
         1           Se  tau(   1) = (   0.0000000   0.1924503   1.2770040  )
         2           Nb  tau(   2) = (   0.0000000   0.0000000   1.1161391  )
         3           Se  tau(   3) = (   0.0000000   0.1924503   0.9552741  )
         4           Se  tau(   4) = (  -0.1666667   0.4811254   1.2770040  )
         5           Nb  tau(   5) = (  -0.1666667   0.2886751   1.1161391  )
         6           Se  tau(   6) = (  -0.1666667   0.4811254   0.9552741  )
         7           Se  tau(   7) = (  -0.3333333   0.7698005   1.2770040  )
         8           Nb  tau(   8) = (  -0.3333333   0.5773503   1.1161391  )
         9           Se  tau(   9) = (  -0.3333333   0.7698005   0.9552741  )
        10           Se  tau(  10) = (   0.3333333   0.1924503   1.2770040  )
        11           Nb  tau(  11) = (   0.3333333   0.0000000   1.1161391  )
        12           Se  tau(  12) = (   0.3333333   0.1924503   0.9552741  )
        13           Se  tau(  13) = (   0.1666667   0.4811254   1.2770040  )
        14           Nb  tau(  14) = (   0.1666667   0.2886751   1.1161391  )
        15           Se  tau(  15) = (   0.1666667   0.4811254   0.9552741  )
        16           Se  tau(  16) = (   0.0000000   0.7698005   1.2770040  )
        17           Nb  tau(  17) = (   0.0000000   0.5773503   1.1161391  )
        18           Se  tau(  18) = (   0.0000000   0.7698005   0.9552741  )
        19           Se  tau(  19) = (   0.6666667   0.1924503   1.2770040  )
        20           Nb  tau(  20) = (   0.6666667   0.0000000   1.1161391  )
        21           Se  tau(  21) = (   0.6666667   0.1924503   0.9552741  )
        22           Se  tau(  22) = (   0.5000000   0.4811254   1.2770040  )
        23           Nb  tau(  23) = (   0.5000000   0.2886751   1.1161391  )
        24           Se  tau(  24) = (   0.5000000   0.4811254   0.9552741  )
        25           Se  tau(  25) = (   0.3333333   0.7698005   1.2770040  )
        26           Nb  tau(  26) = (   0.3333333   0.5773503   1.1161391  )
        27           Se  tau(  27) = (   0.3333333   0.7698005   0.9552741  )

     number of k points=    61  Gaussian smearing, width (Ry)=  0.0500
                       cart. coord. in units 2pi/alat
        k(    1) = (   0.0000000   0.5773503   0.0000000), wk =   0.0327869
        k(    2) = (   0.0000000   0.5484828   0.0000000), wk =   0.0327869
        k(    3) = (   0.0000000   0.5196152   0.0000000), wk =   0.0327869
        k(    4) = (   0.0000000   0.4907477   0.0000000), wk =   0.0327869
        k(    5) = (   0.0000000   0.4618802   0.0000000), wk =   0.0327869
        k(    6) = (   0.0000000   0.4330127   0.0000000), wk =   0.0327869
        k(    7) = (   0.0000000   0.4041452   0.0000000), wk =   0.0327869
        k(    8) = (   0.0000000   0.3752777   0.0000000), wk =   0.0327869
        k(    9) = (   0.0000000   0.3464102   0.0000000), wk =   0.0327869
        k(   10) = (   0.0000000   0.3175426   0.0000000), wk =   0.0327869
        k(   11) = (   0.0000000   0.2886751   0.0000000), wk =   0.0327869
        k(   12) = (   0.0000000   0.2598076   0.0000000), wk =   0.0327869
        k(   13) = (   0.0000000   0.2309401   0.0000000), wk =   0.0327869
        k(   14) = (   0.0000000   0.2020726   0.0000000), wk =   0.0327869
        k(   15) = (   0.0000000   0.1732051   0.0000000), wk =   0.0327869
        k(   16) = (   0.0000000   0.1443376   0.0000000), wk =   0.0327869
        k(   17) = (   0.0000000   0.1154701   0.0000000), wk =   0.0327869
        k(   18) = (   0.0000000   0.0866025   0.0000000), wk =   0.0327869
        k(   19) = (   0.0000000   0.0577350   0.0000000), wk =   0.0327869
        k(   20) = (   0.0000000   0.0288675   0.0000000), wk =   0.0327869
        k(   21) = (   0.0000000   0.0000000   0.0000000), wk =   0.0327869
        k(   22) = (  -0.0166667   0.0288675   0.0000000), wk =   0.0327869
        k(   23) = (  -0.0333333   0.0577350   0.0000000), wk =   0.0327869
        k(   24) = (  -0.0500000   0.0866025   0.0000000), wk =   0.0327869
        k(   25) = (  -0.0666667   0.1154701   0.0000000), wk =   0.0327869
        k(   26) = (  -0.0833333   0.1443376   0.0000000), wk =   0.0327869
        k(   27) = (  -0.1000000   0.1732051   0.0000000), wk =   0.0327869
        k(   28) = (  -0.1166667   0.2020726   0.0000000), wk =   0.0327869
        k(   29) = (  -0.1333333   0.2309401   0.0000000), wk =   0.0327869
        k(   30) = (  -0.1500000   0.2598076   0.0000000), wk =   0.0327869
        k(   31) = (  -0.1666667   0.2886751   0.0000000), wk =   0.0327869
        k(   32) = (  -0.1833333   0.3175426   0.0000000), wk =   0.0327869
        k(   33) = (  -0.2000000   0.3464102   0.0000000), wk =   0.0327869
        k(   34) = (  -0.2166667   0.3752777   0.0000000), wk =   0.0327869
        k(   35) = (  -0.2333333   0.4041452   0.0000000), wk =   0.0327869
        k(   36) = (  -0.2500000   0.4330127   0.0000000), wk =   0.0327869
        k(   37) = (  -0.2666667   0.4618802   0.0000000), wk =   0.0327869
        k(   38) = (  -0.2833333   0.4907477   0.0000000), wk =   0.0327869
        k(   39) = (  -0.3000000   0.5196152   0.0000000), wk =   0.0327869
        k(   40) = (  -0.3166667   0.5484828   0.0000000), wk =   0.0327869
        k(   41) = (  -0.3333333   0.5773503   0.0000000), wk =   0.0327869
        k(   42) = (  -0.3166667   0.5773503   0.0000000), wk =   0.0327869
        k(   43) = (  -0.3000000   0.5773503   0.0000000), wk =   0.0327869
        k(   44) = (  -0.2833333   0.5773503   0.0000000), wk =   0.0327869
        k(   45) = (  -0.2666667   0.5773503   0.0000000), wk =   0.0327869
        k(   46) = (  -0.2500000   0.5773503   0.0000000), wk =   0.0327869
        k(   47) = (  -0.2333333   0.5773503   0.0000000), wk =   0.0327869
        k(   48) = (  -0.2166667   0.5773503   0.0000000), wk =   0.0327869
        k(   49) = (  -0.2000000   0.5773503   0.0000000), wk =   0.0327869
        k(   50) = (  -0.1833333   0.5773503   0.0000000), wk =   0.0327869
        k(   51) = (  -0.1666667   0.5773503   0.0000000), wk =   0.0327869
        k(   52) = (  -0.1500000   0.5773503   0.0000000), wk =   0.0327869
        k(   53) = (  -0.1333333   0.5773503   0.0000000), wk =   0.0327869
        k(   54) = (  -0.1166667   0.5773503   0.0000000), wk =   0.0327869
        k(   55) = (  -0.1000000   0.5773503   0.0000000), wk =   0.0327869
        k(   56) = (  -0.0833333   0.5773503   0.0000000), wk =   0.0327869
        k(   57) = (  -0.0666667   0.5773503   0.0000000), wk =   0.0327869
        k(   58) = (  -0.0500000   0.5773503   0.0000000), wk =   0.0327869
        k(   59) = (  -0.0333333   0.5773503   0.0000000), wk =   0.0327869
        k(   60) = (  -0.0166667   0.5773503   0.0000000), wk =   0.0327869
        k(   61) = (   0.0000000   0.5773503   0.0000000), wk =   0.0327869

     Dense  grid:   881733 G-vectors     FFT dimensions: (  96,  96, 216)

     Smooth grid:   252933 G-vectors     FFT dimensions: (  64,  64, 144)

     Estimated max dynamical RAM per process >      78.64 MB

     Estimated total dynamical RAM >       3.38 GB

     Check: negative core charge=   -0.000003

     The potential is recalculated from file :
     ./outdir/nbse2.save/charge-density


     negative rho (up, down):  1.929E-02 0.000E+00
     Starting wfcs are  162 randomized atomic wfcs +   27 random wfcs
     Checking if some PAW data can be deallocated... 

     Band Structure Calculation
     Davidson diagonalization with overlap
     c_bands:  1 eigenvalues not converged
     c_bands:  1 eigenvalues not converged
     c_bands:  1 eigenvalues not converged
     c_bands:  1 eigenvalues not converged
     c_bands:  1 eigenvalues not converged
     c_bands:  2 eigenvalues not converged
     c_bands:  2 eigenvalues not converged
     c_bands:  2 eigenvalues not converged
     c_bands:  1 eigenvalues not converged
     c_bands:  1 eigenvalues not converged
     c_bands:  1 eigenvalues not converged
     c_bands:  1 eigenvalues not converged
     c_bands:  1 eigenvalues not converged
     c_bands:  1 eigenvalues not converged
     c_bands:  1 eigenvalues not converged
     c_bands:  1 eigenvalues not converged
     c_bands:  1 eigenvalues not converged
     c_bands:  3 eigenvalues not converged

     ethr =  4.44E-12,  avg # of iterations = 96.5

     total cpu time spent up to now is     2208.9 secs

     End of band structure calculation

          k = 0.0000 0.5774 0.0000 ( 31588 PWs)   bands (ev):

   -56.6933 -56.6922 -56.6856 -56.6856 -56.6798 -56.6793 -56.6785 -56.6785
   -56.6757 -32.8860 -32.8573 -32.8571 -32.8560 -32.8558 -32.7884 -32.7883
   -32.7386 -32.7374 -32.7347 -32.7345 -32.7334 -32.7333 -32.7192 -32.7191
   -32.7115 -32.7103 -32.7066 -32.7010 -32.7006 -32.6998 -32.6998 -32.6975
   -32.6944 -32.6941 -32.6642 -32.6628 -14.8386 -14.8381 -14.3625 -14.3625
   -14.0440 -14.0436 -13.8261 -13.8261 -13.8135 -13.8133 -13.8129 -13.8127
   -13.8009 -13.5798 -13.5756 -13.5755 -13.5750 -13.5748  -6.5158  -6.0695
    -6.0695  -6.0691  -6.0691  -6.0037  -6.0033  -5.5945  -5.5668  -5.5668
    -5.5424  -5.5424  -5.5420  -5.5420  -5.0520  -5.0520  -4.9143  -4.8443
    -4.8442  -4.8439  -4.8438  -4.4844  -4.4843  -4.2582  -4.2579  -4.0896
    -4.0895  -4.0892  -4.0891  -3.9484  -3.9483  -3.9195  -3.7453  -3.7449
    -3.5547  -3.5546  -3.5544  -3.5544  -3.0910  -3.0905  -3.0688  -3.0688
    -2.9895  -2.9122  -2.9120  -2.9032  -2.9031  -2.9028  -2.9027  -2.4141
    -2.4140  -2.4038  -2.4038  -2.3542  -1.7347  -1.6220  -1.6219  -1.4434
    -1.4432  -1.4430  -1.4428  -1.2062  -1.2058   0.6987   0.6987   0.9426
     0.9429   0.9622   0.9623   0.9624   0.9627   1.0345   1.1323   1.1329
     1.1886   1.1887   1.2286   1.2291   1.2596   1.2597   1.4213   1.4354
     1.4357   1.4360   1.4364   1.9125   1.9128   1.9456   1.9458   1.9462
     1.9464   2.2344   2.6198   2.6199   2.7708   2.7710   2.7713   2.7716
     2.8225   3.6800   3.6800   3.9080   3.9081   3.9835   4.1562   4.1562
     4.5544   4.5544   4.7728   4.7728   4.8063   4.8064   4.8066   4.8068
     4.9829   4.9831   5.0233   5.0234   5.0740   5.0740   5.6360   5.8555
     5.8571   5.8571   5.9890   5.9891   6.0347   6.0348   6.0349   6.0349
     6.2063   6.2063   6.2287   6.2287   6.2287

          k = 0.0000 0.5485 0.0000 ( 31558 PWs)   bands (ev):

   -56.6934 -56.6921 -56.6855 -56.6854 -56.6798 -56.6793 -56.6787 -56.6782
   -56.6757 -32.8866 -32.8572 -32.8570 -32.8556 -32.8554 -32.7883 -32.7881
   -32.7397 -32.7374 -32.7373 -32.7369 -32.7303 -32.7303 -32.7190 -32.7189
   -32.7158 -32.7070 -32.7049 -32.7013 -32.7005 -32.7005 -32.6987 -32.6972
   -32.6936 -32.6933 -32.6649 -32.6618 -14.8649 -14.8108 -14.3620 -14.3619
   -14.0560 -14.0312 -13.8307 -13.8307 -13.8259 -13.8259 -13.8021 -13.7960
   -13.7959 -13.5839 -13.5838 -13.5803 -13.5668 -13.5668  -6.5142  -6.0815
    -6.0815  -6.0544  -6.0544  -6.0364  -5.9699  -5.5931  -5.5700  -5.5700
    -5.5672  -5.5672  -5.5137  -5.5137  -5.0523  -5.0523  -4.9149  -4.8544
    -4.8544  -4.8339  -4.8339  -4.4874  -4.4873  -4.3280  -4.1870  -4.0956
    -4.0955  -4.0808  -4.0807  -3.9449  -3.9449  -3.9193  -3.8044  -3.6877
    -3.6361  -3.6361  -3.4736  -3.4736  -3.1137  -3.0662  -3.0662  -3.0648
    -2.9897  -2.9519  -2.9180  -2.9180  -2.8888  -2.8888  -2.8732  -2.4339
    -2.4061  -2.4060  -2.3962  -2.3549  -1.7364  -1.6197  -1.6196  -1.4703
    -1.4703  -1.4147  -1.4147  -1.2405  -1.1728   0.7025   0.7025   0.9278
     0.9467   0.9468   0.9645   0.9744   0.9745   1.0295   1.1240   1.1426
     1.1891   1.1892   1.2067   1.2535   1.2626   1.2627   1.4049   1.4049
     1.4174   1.4732   1.4732   1.8712   1.9461   1.9462   1.9472   1.9473
     1.9532   2.2312   2.6199   2.6200   2.7602   2.7603   2.7849   2.7849
     2.8207   3.6333   3.7277   3.8642   3.9538   3.9879   4.1057   4.2073
     4.5550   4.5551   4.7737   4.7737   4.8016   4.8017   4.8132   4.8132
     4.8979   4.9806   5.0678   5.0680   5.0747   5.0747   5.6328   5.8542
     5.8579   5.8579   5.9355   5.9669   5.9669   6.0457   6.0976   6.0976
     6.1606   6.1606   6.2046   6.2046   6.2972

          k = 0.0000 0.5196 0.0000 ( 31564 PWs)   bands (ev):

   -56.6938 -56.6918 -56.6856 -56.6855 -56.6798 -56.6792 -56.6790 -56.6779
   -56.6756 -32.8856 -32.8570 -32.8569 -32.8548 -32.8546 -32.7886 -32.7884
   -32.7408 -32.7406 -32.7405 -32.7361 -32.7271 -32.7271 -32.7220 -32.7193
   -32.7192 -32.7067 -32.7017 -32.7012 -32.7004 -32.7003 -32.6978 -32.6967
   -32.6941 -32.6937 -32.6667 -32.6608 -14.8904 -14.7823 -14.3605 -14.3605
   -14.0676 -14.0183 -13.8487 -13.8487 -13.8253 -13.8253 -13.8055 -13.7794
   -13.7794 -13.5926 -13.5926 -13.5817 -13.5586 -13.5586  -6.5087  -6.0913
    -6.0913  -6.0686  -6.0369  -6.0368  -5.9362  -5.5975  -5.5975  -5.5879
    -5.5705  -5.5705  -5.4850  -5.4850  -5.0538  -5.0538  -4.9154  -4.8653
    -4.8653  -4.8242  -4.8242  -4.4970  -4.4969  -4.4000  -4.1181  -4.0997
    -4.0996  -4.0698  -4.0697  -3.9354  -3.9354  -3.9168  -3.8651  -3.7181
    -3.7180  -3.6313  -3.3939  -3.3939  -3.1377  -3.0594  -3.0594  -3.0398
    -2.9916  -2.9886  -2.9345  -2.9345  -2.8762  -2.8762  -2.8348  -2.4553
    -2.4130  -2.4130  -2.3800  -2.3564  -1.7396  -1.6234  -1.6234  -1.4974
    -1.4973  -1.3855  -1.3855  -1.2794  -1.1416   0.7049   0.7049   0.9128
     0.9283   0.9284   0.9823   0.9824   0.9869   1.0304   1.1199   1.1547
     1.1838   1.1878   1.1879   1.2682   1.2683   1.2751   1.3770   1.3770
     1.4158   1.5130   1.5130   1.8302   1.9441   1.9443   1.9448   1.9450
     1.9944   2.2287   2.6179   2.6179   2.7523   2.7524   2.7998   2.7999
     2.8202   3.5872   3.7762   3.8225   4.0015   4.0022   4.0554   4.2589
     4.5566   4.5566   4.7765   4.7765   4.7991   4.7991   4.8133   4.8215
     4.8215   4.9398   5.0766   5.0766   5.1143   5.1511   5.6243   5.8513
     5.8604   5.8604   5.8849   5.8965   5.8965   6.0928   6.0928   6.1045
     6.1510   6.1510   6.1978   6.1978   6.3655

          k = 0.0000 0.4907 0.0000 ( 31562 PWs)   bands (ev):

   -56.6941 -56.6914 -56.6856 -56.6855 -56.6800 -56.6792 -56.6792 -56.6777
   -56.6756 -32.8846 -32.8566 -32.8565 -32.8543 -32.8542 -32.7894 -32.7893
   -32.7446 -32.7446 -32.7420 -32.7347 -32.7271 -32.7240 -32.7240 -32.7194
   -32.7193 -32.7064 -32.7022 -32.7019 -32.7002 -32.6973 -32.6963 -32.6956
   -32.6938 -32.6931 -32.6677 -32.6593 -14.9148 -14.7528 -14.3581 -14.3581
   -14.0788 -14.0049 -13.8670 -13.8670 -13.8243 -13.8243 -13.8111 -13.7635
   -13.7635 -13.6015 -13.6015 -13.5840 -13.5508 -13.5508  -6.4997  -6.0998
    -6.0986  -6.0986  -6.0171  -6.0171  -5.9021  -5.6247  -5.6247  -5.5792
    -5.5757  -5.5757  -5.4562  -5.4562  -5.0562  -5.0561  -4.9163  -4.8765
    -4.8765  -4.8157  -4.8157  -4.5113  -4.5113  -4.4704  -4.1025  -4.1025
    -4.0565  -4.0564  -4.0489  -3.9254  -3.9206  -3.9205  -3.9128  -3.8006
    -3.8006  -3.5759  -3.3156  -3.3156  -3.1607  -3.0481  -3.0481  -3.0309
    -3.0124  -2.9865  -2.9523  -2.9523  -2.8649  -2.8649  -2.7969  -2.4777
    -2.4243  -2.4243  -2.3662  -2.3590  -1.7446  -1.6282  -1.6281  -1.5240
    -1.5240  -1.3580  -1.3580  -1.3172  -1.1120   0.7100   0.7100   0.9037
     0.9046   0.9048   0.9861   0.9862   1.0146   1.0293   1.1203   1.1644
     1.1749   1.1847   1.1848   1.2805   1.2805   1.2978   1.3525   1.3526
     1.4091   1.5513   1.5513   1.7898   1.9391   1.9391   1.9419   1.9420
     2.0366   2.2259   2.6149   2.6150   2.7463   2.7464   2.8136   2.8136
     2.8185   3.5418   3.7827   3.8259   4.0055   4.0256   4.0513   4.3113
     4.5592   4.5592   4.7306   4.7811   4.7811   4.7975   4.7975   4.8316
     4.8316   4.9009   5.0797   5.0797   5.1625   5.2323   5.6104   5.8253
     5.8254   5.8376   5.8464   5.8645   5.8645   6.0257   6.0257   6.1657
     6.1864   6.1864   6.1884   6.1884   6.4333

          k = 0.0000 0.4619 0.0000 ( 31604 PWs)   bands (ev):

   -56.6945 -56.6909 -56.6857 -56.6856 -56.6802 -56.6796 -56.6792 -56.6775
   -56.6756 -32.8832 -32.8563 -32.8562 -32.8534 -32.8533 -32.7910 -32.7908
   -32.7482 -32.7481 -32.7434 -32.7337 -32.7321 -32.7220 -32.7220 -32.7196
   -32.7195 -32.7062 -32.7030 -32.7028 -32.7004 -32.6968 -32.6960 -32.6945
   -32.6944 -32.6905 -32.6689 -32.6582 -14.9381 -14.7225 -14.3548 -14.3548
   -14.0894 -13.9911 -13.8858 -13.8858 -13.8230 -13.8230 -13.8188 -13.7481
   -13.7481 -13.6105 -13.6105 -13.5874 -13.5431 -13.5431  -6.4871  -6.1299
    -6.1037  -6.1036  -5.9947  -5.9947  -5.8680  -5.6510  -5.6510  -5.5836
    -5.5836  -5.5675  -5.4273  -5.4273  -5.0594  -5.0594  -4.9178  -4.8886
    -4.8886  -4.8072  -4.8072  -4.5403  -4.5305  -4.5305  -4.1037  -4.1036
    -4.0417  -4.0417  -3.9869  -3.9824  -3.9076  -3.9015  -3.9014  -3.8829
    -3.8829  -3.5227  -3.2398  -3.2397  -3.1824  -3.0714  -3.0327  -3.0327
    -2.9844  -2.9836  -2.9708  -2.9708  -2.8553  -2.8553  -2.7600  -2.5013
    -2.4399  -2.4399  -2.3627  -2.3550  -1.7518  -1.6367  -1.6367  -1.5533
    -1.5532  -1.3555  -1.3277  -1.3277  -1.0853   0.7148   0.7148   0.8776
     0.8777   0.8977   0.9816   0.9817   1.0261   1.0432   1.1213   1.1465
     1.1808   1.1809   1.1975   1.2958   1.2959   1.3199   1.3307   1.3307
     1.4024   1.5929   1.5929   1.7498   1.9325   1.9325   1.9378   1.9379
     2.0758   2.2181   2.6099   2.6099   2.7394   2.7394   2.8148   2.8299
     2.8299   3.4967   3.7449   3.8766   3.9558   4.0580   4.1029   4.3644
     4.5627   4.5627   4.6505   4.7876   4.7876   4.7986   4.7987   4.8423
     4.8423   4.8638   5.0842   5.0842   5.2124   5.3105   5.5914   5.7546
     5.7546   5.7932   5.8389   5.8702   5.8702   5.9594   5.9594   6.1698
     6.1698   6.2032   6.2032   6.2278   6.4014

          k = 0.0000 0.4330 0.0000 ( 31576 PWs)   bands (ev):

   -56.6948 -56.6905 -56.6855 -56.6854 -56.6803 -56.6797 -56.6792 -56.6774
   -56.6755 -32.8815 -32.8555 -32.8554 -32.8526 -32.8525 -32.7918 -32.7917
   -32.7519 -32.7519 -32.7449 -32.7376 -32.7329 -32.7193 -32.7192 -32.7184
   -32.7184 -32.7053 -32.7033 -32.7031 -32.7006 -32.6966 -32.6958 -32.6935
   -32.6934 -32.6860 -32.6707 -32.6569 -14.9602 -14.6915 -14.3505 -14.3505
   -14.0995 -13.9770 -13.9048 -13.9048 -13.8287 -13.8211 -13.8211 -13.7335
   -13.7335 -13.6195 -13.6195 -13.5917 -13.5358 -13.5358  -6.4710  -6.1586
    -6.1060  -6.1059  -5.9700  -5.9700  -5.8349  -5.6767  -5.6767  -5.5923
    -5.5923  -5.5526  -5.3980  -5.3980  -5.0628  -5.0628  -4.9192  -4.8998
    -4.8998  -4.8000  -4.8000  -4.6096  -4.5525  -4.5525  -4.1035  -4.1035
    -4.0492  -4.0234  -4.0233  -3.9649  -3.9648  -3.9166  -3.9008  -3.8778
    -3.8778  -3.4704  -3.2023  -3.1651  -3.1650  -3.1116  -3.0129  -3.0129
    -2.9900  -2.9900  -2.9816  -2.9561  -2.8472  -2.8471  -2.7255  -2.5255
    -2.4592  -2.4592  -2.3673  -2.3466  -1.7592  -1.6425  -1.6425  -1.5778
    -1.5778  -1.3971  -1.2979  -1.2979  -1.0591   0.7262   0.7262   0.8476
     0.8477   0.8939   0.9787   0.9788   1.0231   1.0768   1.1263   1.1275
     1.1778   1.1779   1.2240   1.3149   1.3149   1.3187   1.3187   1.3432
     1.3935   1.6353   1.6353   1.7084   1.9250   1.9250   1.9352   1.9352
     2.1146   2.2081   2.6069   2.6069   2.7364   2.7365   2.8106   2.8446
     2.8447   3.4518   3.7092   3.9065   3.9283   4.0992   4.1564   4.4185
     4.5674   4.5674   4.5741   4.7960   4.7960   4.8015   4.8015   4.8287
     4.8553   4.8553   5.0901   5.0901   5.2640   5.3852   5.5679   5.6857
     5.6857   5.7518   5.8291   5.8776   5.8776   5.8944   5.8944   6.1494
     6.1494   6.1905   6.1905   6.2894   6.3225

          k = 0.0000 0.4041 0.0000 ( 31581 PWs)   bands (ev):

   -56.6951 -56.6901 -56.6855 -56.6854 -56.6805 -56.6800 -56.6793 -56.6772
   -56.6755 -32.8801 -32.8547 -32.8546 -32.8513 -32.8512 -32.7933 -32.7932
   -32.7553 -32.7552 -32.7457 -32.7440 -32.7316 -32.7192 -32.7191 -32.7156
   -32.7155 -32.7050 -32.7044 -32.7043 -32.7014 -32.6962 -32.6955 -32.6930
   -32.6929 -32.6820 -32.6718 -32.6558 -14.9810 -14.6597 -14.3453 -14.3453
   -14.1090 -13.9626 -13.9240 -13.9240 -13.8407 -13.8189 -13.8189 -13.7195
   -13.7195 -13.6286 -13.6286 -13.5970 -13.5288 -13.5288  -6.4518  -6.1857
    -6.1062  -6.1062  -5.9427  -5.9427  -5.8027  -5.7011  -5.7011  -5.6037
    -5.6037  -5.5347  -5.3693  -5.3693  -5.0667  -5.0667  -4.9221  -4.9118
    -4.9117  -4.7932  -4.7932  -4.6779  -4.5773  -4.5772  -4.1125  -4.1014
    -4.1013  -4.0458  -4.0458  -4.0035  -4.0034  -3.8928  -3.8533  -3.8519
    -3.8519  -3.4191  -3.2230  -3.1505  -3.0933  -3.0932  -3.0096  -3.0096
    -2.9896  -2.9896  -2.9786  -2.9289  -2.8411  -2.8411  -2.6907  -2.5501
    -2.4821  -2.4821  -2.3732  -2.3403  -1.7705  -1.6521  -1.6520  -1.6045
    -1.6045  -1.4375  -1.2666  -1.2666  -1.0354   0.7380   0.7380   0.8161
     0.8162   0.8919   0.9710   0.9711   1.0180   1.1075   1.1114   1.1391
     1.1725   1.1725   1.2517   1.2986   1.2986   1.3445   1.3445   1.3637
     1.3792   1.6704   1.6809   1.6809   1.9174   1.9174   1.9301   1.9301
     2.1551   2.1936   2.6026   2.6026   2.7320   2.7321   2.8044   2.8628
     2.8629   3.4067   3.6756   3.8578   3.9810   4.1481   4.2117   4.4737
     4.5024   4.5729   4.5729   4.7956   4.8062   4.8062   4.8069   4.8069
     4.8684   4.8684   5.0974   5.0974   5.3173   5.4558   5.5398   5.6192
     5.6192   5.7134   5.8161   5.8305   5.8305   5.8864   5.8864   6.1235
     6.1235   6.1530   6.1530   6.2453   6.2453

          k = 0.0000 0.3753 0.0000 ( 31589 PWs)   bands (ev):

   -56.6955 -56.6895 -56.6854 -56.6853 -56.6807 -56.6803 -56.6794 -56.6771
   -56.6755 -32.8781 -32.8539 -32.8538 -32.8502 -32.8502 -32.7950 -32.7949
   -32.7594 -32.7593 -32.7492 -32.7468 -32.7301 -32.7189 -32.7188 -32.7130
   -32.7130 -32.7050 -32.7049 -32.7045 -32.7018 -32.6960 -32.6954 -32.6924
   -32.6923 -32.6779 -32.6736 -32.6549 -15.0005 -14.6273 -14.3392 -14.3392
   -14.1179 -13.9478 -13.9433 -13.9433 -13.8549 -13.8162 -13.8162 -13.7064
   -13.7064 -13.6378 -13.6378 -13.6032 -13.5223 -13.5223  -6.4292  -6.2116
    -6.1042  -6.1042  -5.9131  -5.9131  -5.7722  -5.7246  -5.7246  -5.6172
    -5.6172  -5.5133  -5.3405  -5.3405  -5.0705  -5.0705  -4.9256  -4.9238
    -4.9238  -4.7883  -4.7882  -4.7438  -4.6038  -4.6038  -4.1754  -4.1259
    -4.1259  -4.0983  -4.0982  -3.9814  -3.9813  -3.8833  -3.8244  -3.8244
    -3.7930  -3.3695  -3.2409  -3.1894  -3.0296  -3.0296  -3.0241  -3.0241
    -2.9746  -2.9630  -2.9630  -2.9007  -2.8367  -2.8367  -2.6577  -2.5749
    -2.5080  -2.5080  -2.3801  -2.3370  -1.7818  -1.6625  -1.6625  -1.6311
    -1.6310  -1.4783  -1.2369  -1.2369  -1.0148   0.7526   0.7526   0.7818
     0.7819   0.8948   0.9633   0.9634   1.0129   1.0908   1.1472   1.1529
     1.1670   1.1671   1.2846   1.2846   1.2854   1.3641   1.3744   1.3745
     1.3858   1.6325   1.7231   1.7231   1.9075   1.9075   1.9252   1.9252
     2.1790   2.1941   2.5975   2.5976   2.7276   2.7277   2.7976   2.8800
     2.8801   3.3612   3.6441   3.8100   4.0349   4.2040   4.2688   4.4359
     4.5301   4.5794   4.5794   4.7645   4.8133   4.8133   4.8183   4.8183
     4.8817   4.8818   5.1061   5.1061   5.3721   5.5082   5.5224   5.5562
     5.5562   5.6778   5.7682   5.7682   5.8003   5.8968   5.8968   6.0923
     6.0923   6.0965   6.0965   6.1703   6.1703

          k = 0.0000 0.3464 0.0000 ( 31569 PWs)   bands (ev):

   -56.6957 -56.6891 -56.6853 -56.6852 -56.6809 -56.6805 -56.6795 -56.6769
   -56.6753 -32.8758 -32.8525 -32.8524 -32.8485 -32.8484 -32.7970 -32.7969
   -32.7627 -32.7626 -32.7554 -32.7476 -32.7288 -32.7187 -32.7186 -32.7105
   -32.7105 -32.7055 -32.7055 -32.7037 -32.7018 -32.6955 -32.6949 -32.6924
   -32.6922 -32.6747 -32.6739 -32.6538 -15.0188 -14.5943 -14.3322 -14.3322
   -14.1262 -13.9628 -13.9628 -13.9328 -13.8710 -13.8132 -13.8132 -13.6940
   -13.6940 -13.6469 -13.6469 -13.6101 -13.5160 -13.5160  -6.4033  -6.2357
    -6.0998  -6.0998  -5.8810  -5.8809  -5.7465  -5.7465  -5.7439  -5.6327
    -5.6327  -5.4887  -5.3119  -5.3119  -5.0741  -5.0741  -4.9357  -4.9357
    -4.9297  -4.8073  -4.7839  -4.7839  -4.6320  -4.6320  -4.2396  -4.2039
    -4.2038  -4.0939  -4.0939  -3.9567  -3.9566  -3.8716  -3.7963  -3.7963
    -3.7350  -3.3213  -3.2574  -3.2280  -3.0491  -3.0491  -2.9695  -2.9577
    -2.9576  -2.9339  -2.9339  -2.8721  -2.8342  -2.8342  -2.6252  -2.5998
    -2.5366  -2.5366  -2.3880  -2.3366  -1.7931  -1.6753  -1.6753  -1.6570
    -1.6570  -1.5180  -1.2049  -1.2049  -0.9955   0.7481   0.7481   0.7673
     0.7673   0.8982   0.9572   0.9573   1.0084   1.0765   1.1595   1.1596
     1.1691   1.1863   1.2718   1.2718   1.3178   1.3485   1.4060   1.4060
     1.4071   1.5981   1.7679   1.7679   1.8996   1.8996   1.9189   1.9190
     2.1632   2.2323   2.5913   2.5914   2.7254   2.7255   2.7914   2.8994
     2.8994   3.3151   3.6147   3.7637   4.0896   4.2664   4.3277   4.3750
     4.5868   4.5868   4.5876   4.7354   4.8227   4.8227   4.8323   4.8323
     4.8946   4.8946   5.1165   5.1165   5.4283   5.4737   5.4977   5.4978
     5.5841   5.6450   5.7076   5.7076   5.7806   5.9087   5.9087   6.0295
     6.0296   6.0563   6.0563   6.0974   6.0974

          k = 0.0000 0.3175 0.0000 ( 31543 PWs)   bands (ev):

   -56.6959 -56.6886 -56.6851 -56.6850 -56.6810 -56.6807 -56.6796 -56.6767
   -56.6753 -32.8733 -32.8511 -32.8510 -32.8469 -32.8468 -32.7988 -32.7987
   -32.7662 -32.7661 -32.7619 -32.7482 -32.7275 -32.7183 -32.7182 -32.7080
   -32.7080 -32.7060 -32.7060 -32.7027 -32.7023 -32.6954 -32.6948 -32.6914
   -32.6912 -32.6759 -32.6697 -32.6529 -15.0356 -14.5609 -14.3243 -14.3242
   -14.1339 -13.9823 -13.9823 -13.9176 -13.8890 -13.8097 -13.8097 -13.6825
   -13.6825 -13.6560 -13.6560 -13.6179 -13.5101 -13.5101  -6.3745  -6.2582
    -6.0933  -6.0932  -5.8468  -5.8468  -5.7672  -5.7672  -5.7186  -5.6494
    -5.6494  -5.4612  -5.2837  -5.2837  -5.0771  -5.0771  -4.9476  -4.9476
    -4.9347  -4.8670  -4.7815  -4.7815  -4.6609  -4.6609  -4.3040  -4.2796
    -4.2796  -4.0888  -4.0887  -3.9299  -3.9299  -3.8589  -3.7676  -3.7676
    -3.6795  -3.2743  -3.2728  -3.2659  -3.0687  -3.0687  -2.9639  -2.9017
    -2.9017  -2.8951  -2.8950  -2.8451  -2.8331  -2.8331  -2.6244  -2.5948
    -2.5672  -2.5672  -2.3970  -2.3379  -1.8052  -1.6869  -1.6868  -1.6822
    -1.6822  -1.5558  -1.1738  -1.1738  -0.9788   0.7116   0.7117   0.7866
     0.7867   0.9053   0.9497   0.9497   1.0056   1.0586   1.1527   1.1528
     1.1901   1.2269   1.2599   1.2599   1.3289   1.3524   1.4268   1.4411
     1.4411   1.5650   1.8101   1.8101   1.8905   1.8905   1.9132   1.9132
     2.1439   2.2698   2.5866   2.5867   2.7220   2.7221   2.7831   2.9178
     2.9179   3.2683   3.5875   3.7196   4.1451   4.3201   4.3346   4.3882
     4.5950   4.5950   4.6465   4.7083   4.8340   4.8341   4.8480   4.8481
     4.9060   4.9060   5.1284   5.1284   5.4368   5.4452   5.4452   5.4859
     5.6149   5.6413   5.6489   5.6489   5.7560   5.9219   5.9219   5.9564
     5.9564   6.0162   6.0162   6.0270   6.0270

          k = 0.0000 0.2887 0.0000 ( 31525 PWs)   bands (ev):

   -56.6960 -56.6882 -56.6850 -56.6849 -56.6812 -56.6810 -56.6797 -56.6765
   -56.6752 -32.8697 -32.8496 -32.8496 -32.8449 -32.8449 -32.8012 -32.8011
   -32.7697 -32.7693 -32.7681 -32.7485 -32.7262 -32.7180 -32.7179 -32.7067
   -32.7067 -32.7058 -32.7058 -32.7027 -32.7019 -32.6950 -32.6944 -32.6910
   -32.6908 -32.6776 -32.6657 -32.6521 -15.0511 -14.5270 -14.3155 -14.3154
   -14.1408 -14.0018 -14.0018 -13.9088 -13.9022 -13.8059 -13.8059 -13.6718
   -13.6718 -13.6651 -13.6651 -13.6265 -13.5047 -13.5047  -6.3424  -6.2787
    -6.0846  -6.0846  -5.8106  -5.8105  -5.7864  -5.7864  -5.6981  -5.6685
    -5.6685  -5.4303  -5.2558  -5.2558  -5.0798  -5.0798  -4.9593  -4.9593
    -4.9405  -4.9223  -4.7811  -4.7811  -4.6906  -4.6906  -4.3685  -4.3519
    -4.3519  -4.0828  -4.0828  -3.9020  -3.9019  -3.8448  -3.7396  -3.7396
    -3.6271  -3.3035  -3.2868  -3.2288  -3.0876  -3.0876  -2.9571  -2.8681
    -2.8681  -2.8360  -2.8360  -2.8335  -2.8335  -2.8186  -2.6486  -2.5994
    -2.5994  -2.5662  -2.4070  -2.3419  -1.8172  -1.7078  -1.7078  -1.7016
    -1.7015  -1.5942  -1.1421  -1.1421  -0.9621   0.6769   0.6770   0.8045
     0.8045   0.9139   0.9434   0.9435   1.0014   1.0413   1.1444   1.1445
     1.2130   1.2469   1.2469   1.2682   1.3117   1.3892   1.4463   1.4768
     1.4769   1.5332   1.8523   1.8523   1.8817   1.8817   1.9065   1.9066
     2.1251   2.3057   2.5813   2.5813   2.7163   2.7163   2.7734   2.9367
     2.9367   3.2210   3.5624   3.6783   4.2015   4.2711   4.4082   4.4504
     4.6040   4.6040   4.6833   4.7068   4.8478   4.8479   4.8656   4.8656
     4.9144   4.9144   5.1421   5.1421   5.3988   5.4000   5.4000   5.5448
     5.5875   5.5922   5.5922   5.6926   5.7260   5.8810   5.8811   5.9364
     5.9365   5.9591   5.9591   5.9718   5.9718

          k = 0.0000 0.2598 0.0000 ( 31577 PWs)   bands (ev):

   -56.6963 -56.6878 -56.6850 -56.6849 -56.6815 -56.6813 -56.6800 -56.6765
   -56.6752 -32.8670 -32.8483 -32.8483 -32.8430 -32.8430 -32.8038 -32.8037
   -32.7751 -32.7734 -32.7731 -32.7492 -32.7245 -32.7178 -32.7177 -32.7075
   -32.7075 -32.7042 -32.7040 -32.7037 -32.7022 -32.6950 -32.6944 -32.6911
   -32.6909 -32.6795 -32.6631 -32.6516 -15.0653 -14.4928 -14.3058 -14.3058
   -14.1473 -14.0213 -14.0213 -13.9304 -13.8869 -13.8017 -13.8017 -13.6742
   -13.6742 -13.6621 -13.6621 -13.6359 -13.4997 -13.4997  -6.3077  -6.2978
    -6.0741  -6.0741  -5.8045  -5.8045  -5.7724  -5.7724  -5.6890  -5.6890
    -5.6832  -5.3972  -5.2284  -5.2284  -5.0817  -5.0817  -4.9717  -4.9710
    -4.9710  -4.9483  -4.7850  -4.7850  -4.7207  -4.7207  -4.4329  -4.4199
    -4.4198  -4.0763  -4.0763  -3.8730  -3.8729  -3.8304  -3.7133  -3.7133
    -3.5795  -3.3414  -3.3017  -3.1866  -3.1062  -3.1062  -2.9504  -2.8359
    -2.8359  -2.8332  -2.8332  -2.7916  -2.7810  -2.7809  -2.6724  -2.6326
    -2.6326  -2.5399  -2.4190  -2.3481  -1.8308  -1.7336  -1.7335  -1.7177
    -1.7177  -1.6293  -1.1139  -1.1139  -0.9500   0.6403   0.6404   0.8216
     0.8217   0.9270   0.9369   0.9370   0.9902   1.0266   1.1348   1.1349
     1.2327   1.2327   1.2350   1.2910   1.3078   1.4270   1.4617   1.5038
     1.5131   1.5132   1.8713   1.8713   1.8904   1.8904   1.8987   1.8987
     2.0999   2.3390   2.5752   2.5752   2.7083   2.7083   2.7594   2.9544
     2.9544   3.1731   3.5395   3.6403   4.2279   4.2587   4.4844   4.5141
     4.6137   4.6137   4.6604   4.7688   4.8623   4.8624   4.8850   4.8850
     4.9183   4.9183   5.1576   5.1576   5.3595   5.3637   5.3637   5.5375
     5.5376   5.5627   5.6047   5.6895   5.7371   5.8053   5.8053   5.8939
     5.8939   5.9245   5.9245   5.9521   5.9521

          k = 0.0000 0.2309 0.0000 ( 31589 PWs)   bands (ev):

   -56.6965 -56.6874 -56.6848 -56.6847 -56.6818 -56.6816 -56.6804 -56.6764
   -56.6751 -32.8640 -32.8468 -32.8467 -32.8413 -32.8413 -32.8062 -32.8061
   -32.7812 -32.7769 -32.7768 -32.7499 -32.7233 -32.7170 -32.7170 -32.7083
   -32.7083 -32.7050 -32.7028 -32.7025 -32.7016 -32.6948 -32.6942 -32.6903
   -32.6901 -32.6809 -32.6600 -32.6507 -15.0780 -14.4584 -14.2953 -14.2953
   -14.1531 -14.0406 -14.0406 -13.9536 -13.8713 -13.7971 -13.7971 -13.6831
   -13.6831 -13.6534 -13.6534 -13.6461 -13.4952 -13.4952  -6.3149  -6.2705
    -6.0619  -6.0619  -5.8206  -5.8206  -5.7329  -5.7328  -5.7107  -5.7107
    -5.6758  -5.3613  -5.2010  -5.2010  -5.0826  -5.0826  -5.0135  -4.9825
    -4.9825  -4.9568  -4.7938  -4.7938  -4.7501  -4.7501  -4.4972  -4.4813
    -4.4813  -4.0696  -4.0696  -3.8432  -3.8431  -3.8147  -3.6879  -3.6879
    -3.5353  -3.3775  -3.3130  -3.1467  -3.1236  -3.1236  -2.9430  -2.8392
    -2.8392  -2.7971  -2.7971  -2.7648  -2.7313  -2.7312  -2.6955  -2.6656
    -2.6656  -2.5156  -2.4318  -2.3560  -1.8425  -1.7582  -1.7582  -1.7334
    -1.7333  -1.6643  -1.0856  -1.0856  -0.9382   0.6056   0.6057   0.8428
     0.8428   0.9338   0.9339   0.9398   0.9821   1.0144   1.1261   1.1261
     1.2173   1.2174   1.2573   1.2677   1.3479   1.4658   1.4766   1.4786
     1.5532   1.5533   1.8629   1.8629   1.8910   1.8911   1.9271   1.9271
     2.0717   2.3731   2.5725   2.5725   2.6988   2.6989   2.7444   2.9707
     2.9708   3.1258   3.5188   3.6061   4.1902   4.3161   4.5626   4.5793
     4.6244   4.6244   4.6396   4.8321   4.8794   4.8795   4.9063   4.9063
     4.9164   4.9164   5.1750   5.1750   5.3210   5.3381   5.3381   5.4850
     5.4850   5.5405   5.6463   5.6655   5.7312   5.7312   5.7733   5.8314
     5.8314   5.8756   5.8756   5.9688   5.9688

          k = 0.0000 0.2021 0.0000 ( 31623 PWs)   bands (ev):

   -56.6966 -56.6871 -56.6848 -56.6846 -56.6820 -56.6819 -56.6806 -56.6764
   -56.6751 -32.8604 -32.8450 -32.8450 -32.8396 -32.8396 -32.8090 -32.8089
   -32.7880 -32.7807 -32.7806 -32.7502 -32.7225 -32.7169 -32.7168 -32.7091
   -32.7091 -32.7058 -32.7013 -32.7007 -32.7002 -32.6948 -32.6943 -32.6907
   -32.6905 -32.6825 -32.6570 -32.6497 -15.0893 -14.4238 -14.2841 -14.2841
   -14.1582 -14.0598 -14.0598 -13.9783 -13.8557 -13.7922 -13.7922 -13.6919
   -13.6919 -13.6569 -13.6457 -13.6457 -13.4912 -13.4912  -6.3301  -6.2308
    -6.0476  -6.0475  -5.8351  -5.8351  -5.7341  -5.7340  -5.6922  -5.6921
    -5.6773  -5.3221  -5.1739  -5.1739  -5.0827  -5.0827  -5.0465  -4.9935
    -4.9935  -4.9662  -4.8092  -4.8092  -4.7804  -4.7803  -4.5614  -4.5340
    -4.5340  -4.0629  -4.0628  -3.8122  -3.8121  -3.7964  -3.6661  -3.6661
    -3.4955  -3.4135  -3.3216  -3.1400  -3.1400  -3.1090  -2.9344  -2.8431
    -2.8431  -2.7611  -2.7611  -2.7388  -2.7181  -2.6985  -2.6985  -2.6865
    -2.6865  -2.4936  -2.4452  -2.3645  -1.8521  -1.7811  -1.7811  -1.7520
    -1.7519  -1.6982  -1.0608  -1.0608  -0.9276   0.5705   0.5706   0.8619
     0.8619   0.9332   0.9332   0.9512   0.9789   1.0021   1.1148   1.1149
     1.2013   1.2014   1.2448   1.2814   1.3863   1.4530   1.4947   1.5049
     1.5891   1.5891   1.8551   1.8551   1.8827   1.8828   1.9581   1.9581
     2.0443   2.4044   2.5684   2.5684   2.6893   2.6894   2.7315   2.9856
     2.9857   3.0796   3.5004   3.5761   4.1578   4.3733   4.6210   4.6360
     4.6360   4.6404   4.6458   4.8970   4.8977   4.8977   4.9078   4.9078
     4.9293   4.9293   5.1945   5.1945   5.2853   5.3241   5.3242   5.4347
     5.4347   5.5210   5.5969   5.6592   5.6592   5.7269   5.7719   5.7719
     5.7981   5.8253   5.8254   5.9863   5.9863

          k = 0.0000 0.1732 0.0000 ( 31617 PWs)   bands (ev):

   -56.6967 -56.6867 -56.6846 -56.6845 -56.6822 -56.6820 -56.6808 -56.6763
   -56.6751 -32.8565 -32.8426 -32.8425 -32.8371 -32.8370 -32.8119 -32.8118
   -32.7939 -32.7838 -32.7837 -32.7509 -32.7209 -32.7164 -32.7164 -32.7096
   -32.7095 -32.7066 -32.7003 -32.6988 -32.6986 -32.6949 -32.6945 -32.6911
   -32.6908 -32.6844 -32.6544 -32.6493 -15.0991 -14.3891 -14.2721 -14.2721
   -14.1627 -14.0787 -14.0787 -14.0045 -13.8400 -13.7870 -13.7870 -13.7006
   -13.7006 -13.6684 -13.6388 -13.6388 -13.4877 -13.4877  -6.3433  -6.1887
    -6.0313  -6.0313  -5.8478  -5.8478  -5.7582  -5.7582  -5.6884  -5.6507
    -5.6506  -5.2804  -5.1465  -5.1465  -5.0818  -5.0818  -5.0699  -5.0040
    -5.0039  -4.9766  -4.8325  -4.8325  -4.8103  -4.8103  -4.6240  -4.5752
    -4.5752  -4.0564  -4.0563  -3.7805  -3.7804  -3.7775  -3.6472  -3.6472
    -3.4595  -3.4480  -3.3304  -3.1548  -3.1548  -3.0749  -2.9248  -2.8474
    -2.8474  -2.7395  -2.7301  -2.7301  -2.7258  -2.7258  -2.7129  -2.6473
    -2.6473  -2.4747  -2.4599  -2.3753  -1.8594  -1.8015  -1.8015  -1.7699
    -1.7699  -1.7295  -1.0351  -1.0351  -0.9189   0.5398   0.5399   0.8812
     0.8812   0.9348   0.9349   0.9672   0.9737   0.9919   1.1046   1.1047
     1.1874   1.1875   1.2222   1.3011   1.4234   1.4310   1.5077   1.5489
     1.6243   1.6244   1.8475   1.8475   1.8756   1.8756   1.9904   1.9904
     2.0148   2.4362   2.5666   2.5666   2.6804   2.6805   2.7156   2.9998
     2.9998   3.0357   3.4842   3.5502   4.1303   4.4310   4.6047   4.6486
     4.6486   4.7137   4.7137   4.8930   4.8930   4.9193   4.9193   4.9540
     4.9540   4.9636   5.2160   5.2160   5.2556   5.3217   5.3217   5.3865
     5.3865   5.5040   5.5416   5.5920   5.5920   5.7157   5.7157   5.7752
     5.7752   5.7885   5.8076   5.9500   6.0045

          k = 0.0000 0.1443 0.0000 ( 31627 PWs)   bands (ev):

   -56.6968 -56.6863 -56.6845 -56.6844 -56.6825 -56.6823 -56.6811 -56.6762
   -56.6751 -32.8527 -32.8407 -32.8406 -32.8353 -32.8352 -32.8149 -32.8147
   -32.7998 -32.7871 -32.7871 -32.7512 -32.7196 -32.7157 -32.7156 -32.7102
   -32.7102 -32.7074 -32.6990 -32.6980 -32.6977 -32.6948 -32.6944 -32.6907
   -32.6904 -32.6858 -32.6521 -32.6487 -15.1074 -14.3544 -14.2593 -14.2592
   -14.1665 -14.0974 -14.0974 -14.0319 -13.8244 -13.7814 -13.7814 -13.7091
   -13.7091 -13.6806 -13.6331 -13.6331 -13.4847 -13.4847  -6.3546  -6.1447
    -6.0141  -6.0141  -5.8587  -5.8587  -5.7827  -5.7827  -5.7086  -5.6095
    -5.6094  -5.2364  -5.1193  -5.1193  -5.0837  -5.0799  -5.0799  -5.0144
    -5.0144  -4.9882  -4.8646  -4.8646  -4.8399  -4.8399  -4.6865  -4.6048
    -4.6048  -4.0506  -4.0505  -3.7561  -3.7505  -3.7504  -3.6309  -3.6309
    -3.4815  -3.4281  -3.3382  -3.1678  -3.1678  -3.0441  -2.9148  -2.8516
    -2.8516  -2.7601  -2.7592  -2.7591  -2.6913  -2.6913  -2.6873  -2.6155
    -2.6155  -2.4756  -2.4575  -2.3858  -1.8650  -1.8212  -1.8212  -1.7870
    -1.7870  -1.7572  -1.0142  -1.0142  -0.9118   0.5127   0.5128   0.9023
     0.9023   0.9365   0.9365   0.9695   0.9839   0.9847   1.0947   1.0948
     1.1688   1.1688   1.1988   1.3206   1.4137   1.4577   1.5186   1.5908
     1.6594   1.6594   1.8411   1.8411   1.8670   1.8671   1.9817   2.0150
     2.0150   2.4666   2.5698   2.5698   2.6674   2.6674   2.7012   2.9954
     3.0109   3.0109   3.4705   3.5286   4.1075   4.4883   4.5907   4.6623
     4.6623   4.7762   4.7828   4.8729   4.8729   4.9415   4.9416   4.9805
     4.9805   5.0320   5.2377   5.2397   5.2397   5.3283   5.3283   5.3404
     5.3404   5.4813   5.4896   5.5290   5.5290   5.6629   5.6629   5.7261
     5.7261   5.7981   5.8500   5.8568   6.0231

          k = 0.0000 0.1155 0.0000 ( 31635 PWs)   bands (ev):

   -56.6969 -56.6860 -56.6843 -56.6841 -56.6826 -56.6826 -56.6813 -56.6763
   -56.6751 -32.8479 -32.8385 -32.8384 -32.8338 -32.8337 -32.8170 -32.8169
   -32.8063 -32.7901 -32.7901 -32.7518 -32.7190 -32.7151 -32.7151 -32.7107
   -32.7107 -32.7083 -32.6979 -32.6966 -32.6963 -32.6950 -32.6945 -32.6905
   -32.6902 -32.6875 -32.6507 -32.6484 -15.1142 -14.3199 -14.2457 -14.2457
   -14.1696 -14.1157 -14.1157 -14.0606 -13.8090 -13.7754 -13.7754 -13.7174
   -13.7174 -13.6932 -13.6284 -13.6284 -13.4823 -13.4823  -6.3638  -6.0987
    -5.9949  -5.9949  -5.8678  -5.8678  -5.8072  -5.8072  -5.7378  -5.5699
    -5.5698  -5.1897  -5.0922  -5.0922  -5.0890  -5.0769  -5.0769  -5.0240
    -5.0240  -5.0008  -4.9019  -4.9019  -4.8689  -4.8689  -4.7489  -4.6243
    -4.6243  -4.0455  -4.0454  -3.7340  -3.7209  -3.7209  -3.6202  -3.6202
    -3.5144  -3.4025  -3.3454  -3.1790  -3.1790  -3.0179  -2.9036  -2.8552
    -2.8552  -2.7850  -2.7850  -2.7806  -2.6630  -2.6587  -2.6587  -2.5903
    -2.5903  -2.4924  -2.4438  -2.3974  -1.8680  -1.8358  -1.8358  -1.8026
    -1.8026  -1.7835  -0.9963  -0.9963  -0.9060   0.4872   0.4873   0.9233
     0.9233   0.9416   0.9417   0.9659   0.9743   1.0025   1.0876   1.0876
     1.1508   1.1508   1.1775   1.3356   1.3982   1.4869   1.5266   1.6289
     1.6939   1.6939   1.8352   1.8352   1.8573   1.8573   1.9491   2.0354
     2.0354   2.4949   2.5727   2.5727   2.6556   2.6557   2.6838   2.9599
     3.0198   3.0198   3.4591   3.5111   4.0892   4.5449   4.5792   4.6774
     4.6774   4.8189   4.8496   4.8496   4.8527   4.9643   4.9643   5.0088
     5.0088   5.1019   5.2402   5.2654   5.2654   5.2963   5.2963   5.3423
     5.3424   5.4172   5.4716   5.4716   5.4778   5.6143   5.6143   5.6786
     5.6787   5.7666   5.7674   5.9104   6.0418

          k = 0.0000 0.0866 0.0000 ( 31641 PWs)   bands (ev):

   -56.6969 -56.6857 -56.6841 -56.6840 -56.6828 -56.6828 -56.6815 -56.6763
   -56.6751 -32.8434 -32.8361 -32.8360 -32.8322 -32.8321 -32.8197 -32.8195
   -32.8114 -32.7927 -32.7927 -32.7518 -32.7175 -32.7148 -32.7148 -32.7113
   -32.7113 -32.7094 -32.6964 -32.6954 -32.6951 -32.6950 -32.6945 -32.6913
   -32.6910 -32.6886 -32.6494 -32.6481 -15.1195 -14.2856 -14.2315 -14.2315
   -14.1720 -14.1337 -14.1337 -14.0903 -13.7935 -13.7692 -13.7692 -13.7255
   -13.7255 -13.7064 -13.6247 -13.6247 -13.4804 -13.4804  -6.3711  -6.0512
    -5.9745  -5.9745  -5.8750  -5.8750  -5.8326  -5.8326  -5.7735  -5.5336
    -5.5335  -5.1411  -5.0871  -5.0732  -5.0732  -5.0650  -5.0650  -5.0331
    -5.0331  -5.0141  -4.9393  -4.9393  -4.8976  -4.8976  -4.8088  -4.6364
    -4.6364  -4.0411  -4.0411  -3.7105  -3.6939  -3.6939  -3.6160  -3.6159
    -3.5455  -3.3828  -3.3502  -3.1878  -3.1878  -2.9961  -2.8917  -2.8577
    -2.8577  -2.8074  -2.8074  -2.7991  -2.6382  -2.6295  -2.6295  -2.5730
    -2.5730  -2.5102  -2.4326  -2.4057  -1.8673  -1.8465  -1.8465  -1.8193
    -1.8192  -1.8049  -0.9820  -0.9820  -0.9021   0.4676   0.4678   0.9399
     0.9399   0.9478   0.9479   0.9636   0.9709   1.0229   1.0801   1.0802
     1.1328   1.1328   1.1544   1.3514   1.3868   1.5104   1.5339   1.6740
     1.7253   1.7253   1.8306   1.8306   1.8458   1.8458   1.9128   2.0520
     2.0520   2.5240   2.5748   2.5748   2.6418   2.6419   2.6654   2.9305
     3.0273   3.0273   3.4502   3.4976   4.0752   4.5701   4.6005   4.6937
     4.6937   4.8247   4.8247   4.8337   4.9236   4.9863   4.9863   5.0388
     5.0388   5.1733   5.2542   5.2542   5.2685   5.2928   5.2928   5.3501
     5.3602   5.3602   5.4222   5.4223   5.4686   5.5714   5.5714   5.6332
     5.6332   5.6800   5.7181   5.9689   6.0605

          k = 0.0000 0.0577 0.0000 ( 31641 PWs)   bands (ev):

   -56.6969 -56.6855 -56.6839 -56.6838 -56.6830 -56.6830 -56.6817 -56.6762
   -56.6751 -32.8386 -32.8337 -32.8335 -32.8307 -32.8307 -32.8226 -32.8224
   -32.8168 -32.7947 -32.7947 -32.7519 -32.7164 -32.7146 -32.7145 -32.7122
   -32.7122 -32.7104 -32.6952 -32.6948 -32.6944 -32.6944 -32.6939 -32.6917
   -32.6912 -32.6900 -32.6484 -32.6475 -15.1233 -14.2516 -14.2166 -14.2166
   -14.1738 -14.1513 -14.1513 -14.1211 -13.7783 -13.7626 -13.7626 -13.7335
   -13.7334 -13.7201 -13.6220 -13.6220 -13.4790 -13.4790  -6.3762  -6.0033
    -5.9528  -5.9528  -5.8799  -5.8799  -5.8576  -5.8576  -5.8144  -5.5033
    -5.5033  -5.0902  -5.0800  -5.0685  -5.0685  -5.0418  -5.0418  -5.0374
    -5.0374  -5.0282  -4.9720  -4.9720  -4.9261  -4.9261  -4.8679  -4.6434
    -4.6434  -4.0379  -4.0379  -3.6863  -3.6702  -3.6701  -3.6166  -3.6166
    -3.5760  -3.3670  -3.3539  -3.1941  -3.1941  -2.9800  -2.8787  -2.8581
    -2.8581  -2.8259  -2.8259  -2.8170  -2.6146  -2.6042  -2.6042  -2.5638
    -2.5637  -2.5291  -2.4243  -2.4123  -1.8646  -1.8520  -1.8519  -1.8327
    -1.8326  -1.8230  -0.9709  -0.9709  -0.8989   0.4540   0.4541   0.9526
     0.9527   0.9544   0.9545   0.9635   0.9658   1.0442   1.0754   1.0755
     1.1146   1.1146   1.1305   1.3625   1.3786   1.5297   1.5389   1.7177
     1.7531   1.7531   1.8280   1.8280   1.8326   1.8327   1.8760   2.0643
     2.0643   2.5504   2.5800   2.5801   2.6265   2.6266   2.6441   2.9085
     3.0338   3.0338   3.4438   3.4880   4.0652   4.5635   4.6544   4.7115
     4.7115   4.7997   4.7997   4.8224   4.9951   5.0062   5.0062   5.0704
     5.0704   5.2139   5.2139   5.2455   5.2808   5.3180   5.3213   5.3214
     5.3771   5.3771   5.3828   5.3828   5.4620   5.5377   5.5377   5.5912
     5.5912   5.5993   5.6552   6.0240   6.0443

          k = 0.0000 0.0289 0.0000 ( 31651 PWs)   bands (ev):

   -56.6970 -56.6854 -56.6837 -56.6837 -56.6832 -56.6832 -56.6819 -56.6762
   -56.6751 -32.8333 -32.8312 -32.8309 -32.8298 -32.8298 -32.8255 -32.8251
   -32.8226 -32.7962 -32.7962 -32.7520 -32.7156 -32.7142 -32.7141 -32.7129
   -32.7128 -32.7111 -32.6948 -32.6944 -32.6941 -32.6939 -32.6932 -32.6921
   -32.6914 -32.6909 -32.6480 -32.6474 -15.1256 -14.2181 -14.2011 -14.2011
   -14.1748 -14.1684 -14.1684 -14.1526 -13.7633 -13.7557 -13.7557 -13.7411
   -13.7411 -13.7341 -13.6204 -13.6204 -13.4782 -13.4782  -6.3793  -5.9547
    -5.9302  -5.9302  -5.8830  -5.8830  -5.8823  -5.8823  -5.8594  -5.4828
    -5.4828  -5.0695  -5.0630  -5.0630  -5.0495  -5.0495  -5.0427  -5.0368
    -5.0101  -5.0101  -4.9946  -4.9946  -4.9546  -4.9546  -4.9261  -4.6472
    -4.6472  -4.0359  -4.0359  -3.6603  -3.6497  -3.6497  -3.6224  -3.6223
    -3.6053  -3.3585  -3.3561  -3.1980  -3.1980  -2.9701  -2.8646  -2.8556
    -2.8556  -2.8402  -2.8402  -2.8341  -2.5916  -2.5839  -2.5839  -2.5629
    -2.5628  -2.5488  -2.4195  -2.4169  -1.8589  -1.8541  -1.8540  -1.8432
    -1.8432  -1.8383  -0.9650  -0.9650  -0.8973   0.4450   0.4452   0.9600
     0.9603   0.9606   0.9611   0.9634   0.9643   1.0640   1.0776   1.0776
     1.0991   1.0991   1.1086   1.3689   1.3734   1.5405   1.5418   1.7577
     1.7766   1.7766   1.8174   1.8174   1.8258   1.8258   1.8393   2.0707
     2.0707   2.5758   2.5888   2.5889   2.6123   2.6124   2.6232   2.8949
     3.0369   3.0369   3.4400   3.4824   4.0593   4.5595   4.7054   4.7311
     4.7311   4.7755   4.7755   4.7931   5.0202   5.0202   5.0669   5.1037
     5.1037   5.1754   5.1754   5.2102   5.3160   5.3495   5.3495   5.3565
     5.3566   5.3705   5.3840   5.3840   5.4581   5.5211   5.5211   5.5344
     5.5549   5.5549   5.5860   6.0284   6.0738

          k = 0.0000 0.0000 0.0000 ( 31679 PWs)   bands (ev):

   -56.6969 -56.6853 -56.6835 -56.6835 -56.6835 -56.6835 -56.6819 -56.6764
   -56.6753 -32.8310 -32.8310 -32.8290 -32.8290 -32.8282 -32.8281 -32.8268
   -32.8268 -32.7975 -32.7975 -32.7520 -32.7153 -32.7136 -32.7136 -32.7136
   -32.7136 -32.7117 -32.6953 -32.6948 -32.6934 -32.6934 -32.6926 -32.6925
   -32.6915 -32.6915 -32.6471 -32.6471 -15.1264 -14.1854 -14.1854 -14.1854
   -14.1846 -14.1846 -14.1846 -14.1751 -13.7490 -13.7490 -13.7489 -13.7482
   -13.7481 -13.7481 -13.6200 -13.6200 -13.4780 -13.4780  -6.3803  -5.9066
    -5.9066  -5.9066  -5.9064  -5.9064  -5.9063  -5.8849  -5.8849  -5.4755
    -5.4754  -5.0569  -5.0569  -5.0568  -5.0564  -5.0563  -5.0563  -5.0030
    -5.0030  -4.9829  -4.9828  -4.9828  -4.9823  -4.9823  -4.9823  -4.6489
    -4.6489  -4.0353  -4.0353  -3.6339  -3.6339  -3.6338  -3.6334  -3.6332
    -3.6332  -3.3549  -3.3549  -3.2005  -3.2005  -2.9667  -2.8501  -2.8501
    -2.8501  -2.8496  -2.8496  -2.8496  -2.5701  -2.5698  -2.5698  -2.5697
    -2.5697  -2.5695  -2.4177  -2.4176  -1.8509  -1.8507  -1.8507  -1.8502
    -1.8502  -1.8498  -0.9657  -0.9657  -0.8959   0.4425   0.4426   0.9625
     0.9625   0.9629   0.9630   0.9636   0.9636   1.0854   1.0857   1.0857
     1.0861   1.0861   1.0865   1.3719   1.3719   1.5450   1.5450   1.7976
     1.7976   1.7979   1.7980   1.7984   1.7984   1.8212   1.8212   2.0686
     2.0686   2.5992   2.5992   2.5994   2.5998   2.6001   2.6001   2.8903
     3.0331   3.0331   3.4387   3.4805   4.0573   4.5582   4.7524   4.7524
     4.7524   4.7526   4.7526   4.7526   5.0236   5.0236   5.1386   5.1386
     5.1386   5.1387   5.1387   5.1388   5.3472   5.3473   5.3730   5.3731
     5.3731   5.3731   5.3731   5.3732   5.4568   5.5286   5.5286   5.5286
     5.5287   5.5287   5.5288   6.0231   6.1158

          k =-0.0167 0.0289 0.0000 ( 31655 PWs)   bands (ev):

   -56.6970 -56.6854 -56.6838 -56.6837 -56.6832 -56.6832 -56.6818 -56.6762
   -56.6751 -32.8338 -32.8332 -32.8305 -32.8299 -32.8286 -32.8272 -32.8230
   -32.8224 -32.7960 -32.7959 -32.7521 -32.7157 -32.7145 -32.7139 -32.7130
   -32.7125 -32.7110 -32.6949 -32.6943 -32.6942 -32.6939 -32.6932 -32.6924
   -32.6914 -32.6909 -32.6480 -32.6479 -15.1254 -14.2181 -14.2177 -14.1846
   -14.1842 -14.1747 -14.1528 -14.1523 -13.7635 -13.7630 -13.7485 -13.7480
   -13.7343 -13.7338 -13.6206 -13.6206 -13.4783 -13.4783  -6.3790  -5.9546
    -5.9544  -5.9059  -5.9058  -5.8828  -5.8826  -5.8593  -5.8591  -5.4854
    -5.4848  -5.0696  -5.0692  -5.0564  -5.0561  -5.0428  -5.0425  -5.0370
    -5.0369  -4.9920  -4.9919  -4.9828  -4.9823  -4.9262  -4.9261  -4.6468
    -4.6466  -4.0361  -4.0361  -3.6616  -3.6613  -3.6384  -3.6380  -3.6070
    -3.6066  -3.3607  -3.3559  -3.1979  -3.1974  -2.9712  -2.8641  -2.8638
    -2.8467  -2.8464  -2.8333  -2.8331  -2.5933  -2.5931  -2.5761  -2.5758
    -2.5507  -2.5504  -2.4206  -2.4164  -1.8583  -1.8579  -1.8483  -1.8478
    -1.8381  -1.8376  -0.9652  -0.9649  -0.8979   0.4462   0.4484   0.9580
     0.9587   0.9613   0.9617   0.9622   0.9625   1.0652   1.0655   1.0898
     1.0903   1.1088   1.1092   1.3682   1.3734   1.5379   1.5414   1.7567
     1.7569   1.7962   1.7968   1.8255   1.8259   1.8379   1.8382   2.0706
     2.0711   2.5756   2.5760   2.6014   2.6020   2.6232   2.6235   2.8964
     3.0356   3.0366   3.4404   3.4830   4.0599   4.5600   4.7060   4.7061
     4.7553   4.7554   4.7937   4.7938   5.0180   5.0200   5.0672   5.0673
     5.1403   5.1403   5.2106   5.2107   5.3166   5.3166   5.3591   5.3603
     5.3711   5.3712   5.3758   5.3759   5.4585   5.5303   5.5305   5.5347
     5.5347   5.5865   5.5866   6.0302   6.0744

          k =-0.0333 0.0577 0.0000 ( 31651 PWs)   bands (ev):

   -56.6970 -56.6855 -56.6840 -56.6838 -56.6831 -56.6829 -56.6817 -56.6763
   -56.6751 -32.8390 -32.8383 -32.8318 -32.8312 -32.8287 -32.8273 -32.8172
   -32.8166 -32.7944 -32.7944 -32.7519 -32.7167 -32.7154 -32.7136 -32.7125
   -32.7114 -32.7101 -32.6958 -32.6952 -32.6951 -32.6944 -32.6938 -32.6926
   -32.6900 -32.6894 -32.6486 -32.6480 -15.1223 -14.2512 -14.2507 -14.1827
   -14.1823 -14.1733 -14.1207 -14.1203 -13.7782 -13.7778 -13.7475 -13.7471
   -13.7200 -13.7195 -13.6229 -13.6226 -13.4794 -13.4793  -6.3749  -6.0026
    -6.0024  -5.9032  -5.9031  -5.8788  -5.8784  -5.8136  -5.8134  -5.5132
    -5.5107  -5.0904  -5.0902  -5.0798  -5.0795  -5.0551  -5.0548  -5.0280
    -5.0277  -4.9832  -4.9827  -4.9631  -4.9627  -4.8681  -4.8680  -4.6430
    -4.6409  -4.0390  -4.0385  -3.6904  -3.6901  -3.6514  -3.6510  -3.5814
    -3.5811  -3.3720  -3.3530  -3.1926  -3.1920  -2.9843  -2.8762  -2.8758
    -2.8372  -2.8369  -2.8134  -2.8131  -2.6194  -2.6192  -2.5941  -2.5939
    -2.5365  -2.5362  -2.4270  -2.4103  -1.8621  -1.8616  -1.8399  -1.8395
    -1.8203  -1.8199  -0.9751  -0.9748  -0.9001   0.4552   0.4566   0.9456
     0.9462   0.9592   0.9595   0.9603   0.9609   1.0505   1.0508   1.1010
     1.1014   1.1326   1.1330   1.3597   1.3804   1.5236   1.5375   1.7142
     1.7145   1.7890   1.7896   1.8280   1.8294   1.8741   1.8743   2.0593
     2.0600   2.5527   2.5531   2.6087   2.6092   2.6456   2.6459   2.9144
     3.0321   3.0326   3.4455   3.4906   4.0679   4.5653   4.6568   4.6569
     4.7638   4.7639   4.8255   4.8256   4.9940   4.9966   4.9967   5.0065
     5.1451   5.1451   5.2477   5.2477   5.2825   5.2826   5.3207   5.3208
     5.3840   5.3841   5.3883   5.3987   5.4638   5.5358   5.5360   5.6009
     5.6009   5.6576   5.6577   6.0260   6.0261

          k =-0.0500 0.0866 0.0000 ( 31639 PWs)   bands (ev):

   -56.6970 -56.6858 -56.6844 -56.6838 -56.6829 -56.6825 -56.6814 -56.6763
   -56.6751 -32.8436 -32.8430 -32.8335 -32.8325 -32.8285 -32.8272 -32.8120
   -32.8114 -32.7920 -32.7915 -32.7519 -32.7177 -32.7165 -32.7131 -32.7119
   -32.7103 -32.7090 -32.6969 -32.6962 -32.6953 -32.6945 -32.6940 -32.6927
   -32.6891 -32.6886 -32.6501 -32.6483 -15.1173 -14.2843 -14.2839 -14.1796
   -14.1792 -14.1710 -14.0893 -14.0888 -13.7931 -13.7926 -13.7460 -13.7455
   -13.7060 -13.7056 -13.6268 -13.6258 -13.4814 -13.4810  -6.3680  -6.0491
    -6.0489  -5.8989  -5.8988  -5.8727  -5.8713  -5.7719  -5.7718  -5.5538
    -5.5460  -5.1417  -5.1416  -5.0867  -5.0864  -5.0528  -5.0525  -5.0131
    -5.0128  -4.9838  -4.9833  -4.9224  -4.9221  -4.8092  -4.8092  -4.6357
    -4.6279  -4.0438  -4.0422  -3.7192  -3.7190  -3.6727  -3.6723  -3.5579
    -3.5575  -3.3914  -3.3485  -3.1848  -3.1832  -3.0056  -2.8863  -2.8860
    -2.8220  -2.8217  -2.7903  -2.7901  -2.6485  -2.6483  -2.6227  -2.6225
    -2.5273  -2.5270  -2.4378  -2.4020  -1.8585  -1.8581  -1.8256  -1.8252
    -1.8010  -1.8005  -0.9897  -0.9877  -0.9038   0.4748   0.4752   0.9329
     0.9335   0.9505   0.9511   0.9596   0.9599   1.0427   1.0430   1.1160
     1.1163   1.1589   1.1594   1.3437   1.3916   1.5000   1.5303   1.6665
     1.6669   1.7788   1.7794   1.8302   1.8345   1.9082   1.9084   2.0431
     2.0456   2.5299   2.5304   2.6178   2.6183   2.6667   2.6670   2.9433
     3.0235   3.0247   3.4540   3.5033   4.0812   4.5740   4.6061   4.6062
     4.7776   4.7777   4.8408   4.8409   4.9270   4.9271   4.9600   4.9930
     5.1530   5.1530   5.1782   5.1782   5.2744   5.2745   5.3542   5.3543
     5.3973   5.3974   5.4291   5.4581   5.4725   5.5450   5.5452   5.6840
     5.6840   5.7245   5.7246   5.9729   5.9730

          k =-0.0667 0.1155 0.0000 ( 31619 PWs)   bands (ev):

   -56.6968 -56.6861 -56.6848 -56.6838 -56.6828 -56.6822 -56.6811 -56.6762
   -56.6751 -32.8482 -32.8475 -32.8355 -32.8338 -32.8286 -32.8273 -32.8062
   -32.8056 -32.7890 -32.7876 -32.7515 -32.7186 -32.7174 -32.7132 -32.7120
   -32.7090 -32.7078 -32.6983 -32.6977 -32.6952 -32.6951 -32.6942 -32.6939
   -32.6882 -32.6876 -32.6511 -32.6487 -15.1102 -14.3174 -14.3169 -14.1753
   -14.1749 -14.1677 -14.0586 -14.0581 -13.8078 -13.8073 -13.7439 -13.7434
   -13.6924 -13.6919 -13.6322 -13.6301 -13.4842 -13.4833  -6.3583  -6.0946
    -6.0944  -5.8932  -5.8931  -5.8641  -5.8604  -5.7349  -5.7348  -5.6021
    -5.5861  -5.1909  -5.1908  -5.0883  -5.0880  -5.0498  -5.0495  -4.9988
    -4.9985  -4.9852  -4.9847  -4.8805  -4.8762  -4.7483  -4.7483  -4.6236
    -4.6033  -4.0502  -4.0469  -3.7479  -3.7476  -3.7022  -3.7018  -3.5374
    -3.5370  -3.4172  -3.3403  -3.1744  -3.1698  -3.0336  -2.8950  -2.8946
    -2.8033  -2.8030  -2.7633  -2.7631  -2.6789  -2.6787  -2.6612  -2.6610
    -2.5240  -2.5237  -2.4528  -2.3899  -1.8507  -1.8503  -1.8093  -1.8089
    -1.7776  -1.7772  -1.0100  -1.0038  -0.9085   0.5011   0.5023   0.9149
     0.9154   0.9363   0.9369   0.9618   0.9621   1.0420   1.0423   1.1316
     1.1319   1.1829   1.1834   1.3258   1.4077   1.4699   1.5227   1.6209
     1.6213   1.7628   1.7633   1.8349   1.8436   1.9416   1.9418   2.0190
     2.0273   2.5067   2.5071   2.6262   2.6267   2.6859   2.6862   2.9814
     3.0123   3.0190   3.4658   3.5214   4.1000   4.5545   4.5546   4.5860
     4.7960   4.7960   4.8312   4.8313   4.8587   4.8588   4.9197   4.9841
     5.1104   5.1105   5.1640   5.1640   5.2509   5.2510   5.4154   5.4155
     5.4252   5.4253   5.4759   5.4848   5.5335   5.5578   5.5580   5.7737
     5.7737   5.7801   5.7802   5.9171   5.9171

          k =-0.0833 0.1443 0.0000 ( 31605 PWs)   bands (ev):

   -56.6967 -56.6865 -56.6851 -56.6838 -56.6827 -56.6819 -56.6809 -56.6762
   -56.6750 -32.8527 -32.8520 -32.8380 -32.8351 -32.8286 -32.8273 -32.8003
   -32.7998 -32.7855 -32.7837 -32.7509 -32.7198 -32.7186 -32.7132 -32.7120
   -32.7082 -32.7069 -32.6999 -32.6992 -32.6961 -32.6948 -32.6948 -32.6940
   -32.6863 -32.6858 -32.6538 -32.6491 -15.1011 -14.3503 -14.3498 -14.1698
   -14.1693 -14.1636 -14.0288 -14.0283 -13.8226 -13.8221 -13.7411 -13.7407
   -13.6791 -13.6786 -13.6394 -13.6354 -13.4878 -13.4861  -6.3460  -6.1379
    -6.1377  -5.8859  -5.8858  -5.8538  -5.8467  -5.7034  -5.7033  -5.6551
    -5.6271  -5.2384  -5.2382  -5.0835  -5.0832  -5.0458  -5.0455  -4.9873
    -4.9868  -4.9853  -4.9849  -4.8454  -4.8315  -4.6865  -4.6865  -4.6044
    -4.5632  -4.0581  -4.0520  -3.7757  -3.7755  -3.7367  -3.7363  -3.5191
    -3.5187  -3.4507  -3.3336  -3.1619  -3.1533  -3.0673  -2.9028  -2.9025
    -2.7820  -2.7817  -2.7334  -2.7332  -2.7100  -2.7098  -2.7073  -2.7070
    -2.5268  -2.5265  -2.4723  -2.3760  -1.8384  -1.8380  -1.7895  -1.7891
    -1.7489  -1.7485  -1.0348  -1.0251  -0.9169   0.5312   0.5374   0.8977
     0.8982   0.9191   0.9197   0.9644   0.9646   1.0464   1.0467   1.1482
     1.1485   1.2063   1.2068   1.3046   1.4284   1.4333   1.5085   1.5728
     1.5732   1.7433   1.7438   1.8381   1.8554   1.9722   1.9724   1.9889
     2.0031   2.4841   2.4846   2.6375   2.6380   2.7023   2.7026   2.9985
     3.0090   3.0264   3.4809   3.5450   4.1247   4.5026   4.5027   4.6013
     4.7920   4.7921   4.7948   4.7949   4.8184   4.8185   4.8745   4.9821
     5.0450   5.0451   5.1779   5.1780   5.2557   5.2558   5.4376   5.4377
     5.4952   5.4953   5.5005   5.5271   5.5750   5.5752   5.6205   5.8197
     5.8199   5.8599   5.8599   5.8680   5.8681

          k =-0.1000 0.1732 0.0000 ( 31593 PWs)   bands (ev):

   -56.6965 -56.6868 -56.6855 -56.6837 -56.6826 -56.6815 -56.6806 -56.6763
   -56.6751 -32.8566 -32.8558 -32.8408 -32.8373 -32.8284 -32.8272 -32.7941
   -32.7936 -32.7822 -32.7797 -32.7503 -32.7211 -32.7199 -32.7131 -32.7119
   -32.7071 -32.7059 -32.7010 -32.7003 -32.6975 -32.6962 -32.6952 -32.6938
   -32.6849 -32.6845 -32.6565 -32.6497 -15.0900 -14.3828 -14.3824 -14.1630
   -14.1626 -14.1585 -13.9999 -13.9994 -13.8371 -13.8366 -13.7379 -13.7374
   -13.6662 -13.6657 -13.6486 -13.6416 -13.4925 -13.4894  -6.3311  -6.1783
    -6.1781  -5.8774  -5.8774  -5.8420  -5.8301  -5.7103  -5.6806  -5.6805
    -5.6674  -5.2836  -5.2834  -5.0708  -5.0705  -5.0411  -5.0408  -4.9900
    -4.9895  -4.9720  -4.9716  -4.8220  -4.7946  -4.6236  -4.6235  -4.5743
    -4.5052  -4.0673  -4.0575  -3.8025  -3.8023  -3.7747  -3.7744  -3.5035
    -3.5031  -3.4906  -3.3239  -3.1479  -3.1340  -3.1059  -2.9098  -2.9094
    -2.7602  -2.7601  -2.7589  -2.7587  -2.7414  -2.7413  -2.6998  -2.6996
    -2.5349  -2.5346  -2.4964  -2.3610  -1.8197  -1.8193  -1.7700  -1.7696
    -1.7204  -1.7199  -1.0662  -1.0506  -0.9271   0.5651   0.5729   0.8818
     0.8822   0.9022   0.9028   0.9700   0.9703   1.0531   1.0533   1.1647
     1.1650   1.2301   1.2306   1.2810   1.3923   1.4531   1.4934   1.5246
     1.5250   1.7230   1.7235   1.8396   1.8696   1.9484   1.9742   2.0029
     2.0031   2.4617   2.4622   2.6512   2.6516   2.7154   2.7157   2.9793
     2.9957   3.0765   3.4991   3.5741   4.1557   4.4507   4.4508   4.6198
     4.7271   4.7272   4.7394   4.7394   4.8269   4.8444   4.8444   4.9822
     4.9822   4.9858   5.1948   5.1948   5.2836   5.2837   5.4631   5.4632
     5.5197   5.5641   5.5642   5.5794   5.5963   5.5965   5.7170   5.8023
     5.8024   5.8405   5.8407   5.9664   5.9664

          k =-0.1167 0.2021 0.0000 ( 31557 PWs)   bands (ev):

   -56.6964 -56.6872 -56.6859 -56.6835 -56.6824 -56.6811 -56.6802 -56.6764
   -56.6751 -32.8598 -32.8591 -32.8437 -32.8394 -32.8283 -32.8270 -32.7880
   -32.7875 -32.7786 -32.7749 -32.7496 -32.7223 -32.7211 -32.7127 -32.7115
   -32.7060 -32.7048 -32.7022 -32.7015 -32.6985 -32.6972 -32.6949 -32.6941
   -32.6835 -32.6831 -32.6596 -32.6506 -15.0770 -14.4150 -14.4145 -14.1551
   -14.1547 -14.1526 -13.9722 -13.9717 -13.8516 -13.8511 -13.7340 -13.7335
   -13.6596 -13.6538 -13.6534 -13.6486 -13.4979 -13.4933  -6.3135  -6.2159
    -6.2156  -5.8678  -5.8677  -5.8288  -5.8095  -5.7663  -5.7052  -5.6664
    -5.6662  -5.3263  -5.3261  -5.0493  -5.0491  -5.0353  -5.0350  -4.9936
    -4.9931  -4.9596  -4.9593  -4.8086  -4.7693  -4.5597  -4.5597  -4.5304
    -4.4310  -4.0777  -4.0627  -3.8279  -3.8277  -3.8142  -3.8139  -3.5377
    -3.4909  -3.4904  -3.3113  -3.1484  -3.1332  -3.1110  -2.9161  -2.9158
    -2.8175  -2.8173  -2.7731  -2.7729  -2.7365  -2.7363  -2.6639  -2.6637
    -2.5484  -2.5481  -2.5252  -2.3471  -1.7972  -1.7968  -1.7488  -1.7484
    -1.6890  -1.6885  -1.1010  -1.0766  -0.9387   0.5998   0.6137   0.8687
     0.8691   0.8848   0.8854   0.9774   0.9776   1.0621   1.0623   1.1807
     1.1809   1.2530   1.2535   1.2542   1.3466   1.4755   1.4759   1.4766
     1.4827   1.7025   1.7030   1.8416   1.8876   1.9013   1.9438   2.0338
     2.0341   2.4391   2.4396   2.6682   2.6686   2.7261   2.7264   2.9561
     2.9848   3.1300   3.5204   3.6089   4.1932   4.3993   4.3994   4.6413
     4.6641   4.6642   4.6740   4.6740   4.7790   4.8731   4.8731   4.9220
     4.9220   4.9970   5.2145   5.2145   5.3261   5.3262   5.4911   5.4911
     5.5423   5.6222   5.6224   5.6318   5.6319   5.6325   5.7452   5.7453
     5.8210   5.8439   5.8441   6.0682   6.0682

          k =-0.1333 0.2309 0.0000 ( 31570 PWs)   bands (ev):

   -56.6963 -56.6876 -56.6862 -56.6834 -56.6823 -56.6808 -56.6800 -56.6765
   -56.6752 -32.8630 -32.8623 -32.8469 -32.8404 -32.8281 -32.8268 -32.7824
   -32.7820 -32.7743 -32.7713 -32.7489 -32.7234 -32.7222 -32.7126 -32.7114
   -32.7054 -32.7043 -32.7039 -32.7032 -32.7004 -32.6991 -32.6952 -32.6944
   -32.6820 -32.6817 -32.6637 -32.6520 -15.0621 -14.4466 -14.4462 -14.1462
   -14.1458 -14.1457 -13.9458 -13.9453 -13.8658 -13.8654 -13.7296 -13.7291
   -13.6725 -13.6563 -13.6421 -13.6416 -13.5042 -13.4975  -6.2935  -6.2503
    -6.2501  -5.8573  -5.8572  -5.8225  -5.8146  -5.7856  -5.7393  -5.6613
    -5.6610  -5.3669  -5.3667  -5.0288  -5.0284  -5.0195  -5.0193  -4.9983
    -4.9979  -4.9484  -4.9481  -4.8042  -4.7544  -4.4954  -4.4954  -4.4744
    -4.3456  -4.0883  -4.0673  -3.8557  -3.8554  -3.8528  -3.8526  -3.5915
    -3.4802  -3.4798  -3.2983  -3.1941  -3.1179  -3.0857  -2.9225  -2.9221
    -2.8795  -2.8792  -2.8044  -2.8043  -2.7148  -2.7145  -2.6254  -2.6252
    -2.5675  -2.5672  -2.5595  -2.3341  -1.7723  -1.7719  -1.7292  -1.7288
    -1.6567  -1.6562  -1.1355  -1.1076  -0.9535   0.6356   0.6562   0.8559
     0.8563   0.8679   0.8685   0.9847   0.9849   1.0717   1.0720   1.1936
     1.1938   1.2259   1.2752   1.2757   1.2977   1.4259   1.4264   1.4568
     1.5150   1.6812   1.6817   1.8413   1.8552   1.9059   1.9071   2.0622
     2.0624   2.4168   2.4173   2.6842   2.6846   2.7295   2.7298   2.9290
     2.9730   3.1850   3.5448   3.6492   4.2377   4.3485   4.3486   4.6030
     4.6031   4.6049   4.6049   4.6657   4.7298   4.8642   4.8642   4.9040
     4.9041   5.0164   5.2369   5.2370   5.3773   5.3774   5.5207   5.5207
     5.5683   5.6525   5.6527   5.6862   5.6891   5.6891   5.6986   5.6987
     5.8330   5.8332   5.9308   6.1733   6.1733

          k =-0.1500 0.2598 0.0000 ( 31580 PWs)   bands (ev):

   -56.6960 -56.6880 -56.6867 -56.6833 -56.6822 -56.6806 -56.6798 -56.6767
   -56.6753 -32.8662 -32.8655 -32.8499 -32.8420 -32.8281 -32.8269 -32.7763
   -32.7760 -32.7707 -32.7669 -32.7484 -32.7249 -32.7236 -32.7122 -32.7110
   -32.7057 -32.7050 -32.7043 -32.7032 -32.7028 -32.7015 -32.6961 -32.6943
   -32.6810 -32.6807 -32.6671 -32.6524 -15.0452 -14.4776 -14.4771 -14.1382
   -14.1361 -14.1357 -13.9208 -13.9203 -13.8798 -13.8794 -13.7247 -13.7242
   -13.6875 -13.6645 -13.6309 -13.6304 -13.5116 -13.5020  -6.2816  -6.2814
    -6.2709  -5.8775  -5.8466  -5.8465  -5.7995  -5.7700  -5.7589  -5.6640
    -5.6637  -5.4052  -5.4050  -5.0213  -5.0210  -5.0045  -5.0041  -4.9820
    -4.9818  -4.9384  -4.9381  -4.8036  -4.7482  -4.4306  -4.4306  -4.4105
    -4.2517  -4.0999  -4.0709  -3.8974  -3.8972  -3.8755  -3.8753  -3.6468
    -3.4724  -3.4720  -3.2820  -3.2425  -3.1021  -3.0587  -2.9442  -2.9440
    -2.9289  -2.9286  -2.8348  -2.8347  -2.6948  -2.6945  -2.5979  -2.5913
    -2.5910  -2.5855  -2.5853  -2.3215  -1.7454  -1.7450  -1.7107  -1.7103
    -1.6236  -1.6231  -1.1746  -1.1375  -0.9688   0.6753   0.6991   0.8445
     0.8449   0.8528   0.8533   0.9924   0.9927   1.0825   1.0827   1.1974
     1.2064   1.2066   1.2528   1.2969   1.2974   1.3769   1.3774   1.4369
     1.5518   1.6603   1.6608   1.8009   1.8359   1.8690   1.9319   2.0897
     2.0900   2.3924   2.3929   2.7005   2.7008   2.7303   2.7307   2.9006
     2.9561   3.2406   3.5720   3.6946   4.2898   4.2986   4.2987   4.5361
     4.5362   4.5441   4.5442   4.6808   4.6929   4.8089   4.8090   4.9366
     4.9366   5.0421   5.2620   5.2620   5.4339   5.4341   5.5514   5.5514
     5.5979   5.6342   5.6343   5.6861   5.6863   5.7384   5.7649   5.7650
     5.8120   5.8122   6.0455   6.2815   6.2815

          k =-0.1667 0.2887 0.0000 ( 31612 PWs)   bands (ev):

   -56.6958 -56.6884 -56.6871 -56.6832 -56.6821 -56.6803 -56.6796 -56.6769
   -56.6754 -32.8693 -32.8685 -32.8527 -32.8433 -32.8281 -32.8269 -32.7706
   -32.7703 -32.7669 -32.7626 -32.7478 -32.7259 -32.7247 -32.7120 -32.7108
   -32.7073 -32.7067 -32.7052 -32.7040 -32.7037 -32.7027 -32.6966 -32.6947
   -32.6803 -32.6800 -32.6719 -32.6538 -15.0266 -14.5078 -14.5074 -14.1297
   -14.1251 -14.1247 -13.8972 -13.8968 -13.8935 -13.8930 -13.7194 -13.7189
   -13.7043 -13.6731 -13.6204 -13.6199 -13.5198 -13.5068  -6.3093  -6.3091
    -6.2460  -5.9315  -5.8354  -5.8353  -5.7962  -5.7840  -5.7283  -5.6737
    -5.6734  -5.4411  -5.4409  -5.0135  -5.0132  -5.0120  -5.0116  -4.9391
    -4.9388  -4.9294  -4.9291  -4.8059  -4.7474  -4.3653  -4.3653  -4.3414
    -4.1520  -4.1109  -4.0736  -3.9381  -3.9379  -3.8962  -3.8960  -3.7094
    -3.4654  -3.4650  -3.2933  -3.2653  -3.0865  -3.0293  -3.0110  -3.0107
    -2.9356  -2.9352  -2.8643  -2.8642  -2.6774  -2.6772  -2.6424  -2.6192
    -2.6189  -2.5448  -2.5447  -2.3106  -1.7170  -1.7166  -1.6931  -1.6927
    -1.5910  -1.5905  -1.2148  -1.1679  -0.9876   0.7137   0.7407   0.8361
     0.8365   0.8378   0.8383   1.0013   1.0014   1.0929   1.0931   1.1687
     1.2039   1.2180   1.2182   1.3160   1.3165   1.3305   1.3310   1.4132
     1.5907   1.6398   1.6402   1.7425   1.8302   1.8313   1.9583   2.1163
     2.1167   2.3695   2.3700   2.7166   2.7169   2.7269   2.7272   2.8693
     2.9430   3.2956   3.6022   3.7444   4.2498   4.2498   4.3498   4.4701
     4.4702   4.4875   4.4876   4.6323   4.7229   4.7559   4.7560   4.9705
     4.9705   5.0728   5.2895   5.2895   5.4943   5.4944   5.5810   5.5811
     5.5829   5.5830   5.6309   5.7219   5.7221   5.7834   5.7836   5.7873
     5.8313   5.8314   6.1634   6.3249   6.3249

          k =-0.1833 0.3175 0.0000 ( 31598 PWs)   bands (ev):

   -56.6954 -56.6888 -56.6875 -56.6830 -56.6819 -56.6800 -56.6794 -56.6771
   -56.6755 -32.8711 -32.8704 -32.8557 -32.8439 -32.8281 -32.8269 -32.7652
   -32.7649 -32.7628 -32.7586 -32.7465 -32.7271 -32.7258 -32.7115 -32.7104
   -32.7085 -32.7080 -32.7072 -32.7062 -32.7028 -32.7018 -32.6972 -32.6951
   -32.6794 -32.6791 -32.6758 -32.6548 -15.0061 -14.5373 -14.5368 -14.1204
   -14.1131 -14.1126 -13.9068 -13.9063 -13.8752 -13.8748 -13.7231 -13.7135
   -13.7130 -13.6821 -13.6104 -13.6100 -13.5289 -13.5118  -6.3328  -6.3326
    -6.2186  -5.9842  -5.8246  -5.8245  -5.8176  -5.7682  -5.6941  -5.6886
    -5.6882  -5.4740  -5.4737  -5.0228  -5.0224  -5.0034  -5.0031  -4.9207
    -4.9203  -4.8915  -4.8913  -4.8106  -4.7505  -4.3005  -4.3005  -4.2688
    -4.1214  -4.0748  -4.0482  -3.9765  -3.9763  -3.9145  -3.9144  -3.7741
    -3.4591  -3.4587  -3.3443  -3.2469  -3.0791  -3.0788  -3.0716  -2.9983
    -2.9417  -2.9413  -2.8925  -2.8924  -2.6910  -2.6628  -2.6626  -2.6504
    -2.6501  -2.5043  -2.5041  -2.2997  -1.6864  -1.6860  -1.6759  -1.6754
    -1.5583  -1.5578  -1.2546  -1.1995  -1.0071   0.7514   0.7823   0.8262
     0.8267   0.8322   0.8326   1.0117   1.0119   1.1023   1.1025   1.1448
     1.1597   1.2291   1.2292   1.2849   1.2854   1.3375   1.3380   1.3895
     1.6222   1.6225   1.6344   1.6842   1.7907   1.8220   1.9885   2.1452
     2.1456   2.3465   2.3470   2.7208   2.7212   2.7341   2.7344   2.8347
     2.9311   3.3500   3.6353   3.7977   4.2020   4.2021   4.4092   4.4093
     4.4180   4.4332   4.4333   4.5841   4.7051   4.7051   4.7557   5.0055
     5.0055   5.1089   5.3195   5.3196   5.5296   5.5297   5.5578   5.5579
     5.6155   5.6155   5.6675   5.7492   5.7493   5.7589   5.7591   5.8315
     5.8987   5.8987   6.2825   6.3595   6.3595

          k =-0.2000 0.3464 0.0000 ( 31586 PWs)   bands (ev):

   -56.6953 -56.6892 -56.6878 -56.6828 -56.6818 -56.6797 -56.6792 -56.6772
   -56.6755 -32.8732 -32.8724 -32.8585 -32.8440 -32.8280 -32.8268 -32.7599
   -32.7594 -32.7585 -32.7532 -32.7460 -32.7281 -32.7269 -32.7112 -32.7100
   -32.7100 -32.7100 -32.7090 -32.7085 -32.7019 -32.7010 -32.6974 -32.6950
   -32.6817 -32.6778 -32.6778 -32.6565 -14.9839 -14.5657 -14.5652 -14.1103
   -14.1001 -14.0997 -13.9197 -13.9192 -13.8550 -13.8545 -13.7438 -13.7073
   -13.7068 -13.6913 -13.6012 -13.6008 -13.5389 -13.5169  -6.3525  -6.3523
    -6.1892  -6.0351  -5.8344  -5.8142  -5.8141  -5.7517  -5.7068  -5.7064
    -5.6560  -5.5044  -5.5041  -5.0352  -5.0348  -4.9931  -4.9928  -4.9129
    -4.9126  -4.8407  -4.8406  -4.8156  -4.7567  -4.2366  -4.2366  -4.1941
    -4.1312  -4.0739  -4.0126  -4.0124  -3.9410  -3.9313  -3.9311  -3.8437
    -3.4528  -3.4524  -3.3979  -3.2289  -3.1471  -3.1468  -3.0571  -2.9654
    -2.9480  -2.9477  -2.9185  -2.9184  -2.7454  -2.6855  -2.6852  -2.6515
    -2.6513  -2.4644  -2.4643  -2.2914  -1.6601  -1.6596  -1.6559  -1.6556
    -1.5231  -1.5226  -1.2939  -1.2278  -1.0315   0.7898   0.8206   0.8210
     0.8228   0.8311   0.8315   1.0188   1.0190   1.1123   1.1124   1.1137
     1.1185   1.2395   1.2396   1.2403   1.2408   1.3574   1.3578   1.3620
     1.6069   1.6073   1.6255   1.6786   1.7540   1.8123   2.0261   2.1733
     2.1737   2.3229   2.3234   2.7094   2.7098   2.7507   2.7510   2.7991
     2.9210   3.4034   3.6712   3.8535   4.1559   4.1560   4.3537   4.3538
     4.3812   4.3813   4.4944   4.5381   4.6565   4.6566   4.7912   5.0415
     5.0415   5.1491   5.3519   5.3519   5.4802   5.4803   5.6229   5.6231
     5.6491   5.6491   5.7077   5.7105   5.7107   5.7956   5.7958   5.8675
     5.9675   5.9675   6.3957   6.3957   6.3995

          k =-0.2167 0.3753 0.0000 ( 31574 PWs)   bands (ev):

   -56.6949 -56.6896 -56.6883 -56.6825 -56.6815 -56.6795 -56.6791 -56.6774
   -56.6755 -32.8748 -32.8741 -32.8611 -32.8439 -32.8279 -32.8268 -32.7554
   -32.7544 -32.7539 -32.7489 -32.7453 -32.7293 -32.7280 -32.7118 -32.7117
   -32.7106 -32.7103 -32.7103 -32.7091 -32.7014 -32.7006 -32.6980 -32.6953
   -32.6861 -32.6770 -32.6769 -32.6579 -14.9599 -14.5932 -14.5927 -14.0994
   -14.0863 -14.0859 -13.9321 -13.9317 -13.8365 -13.8360 -13.7664 -13.7006
   -13.7006 -13.7002 -13.5929 -13.5924 -13.5497 -13.5222  -6.3681  -6.3679
    -6.1577  -6.0840  -5.8463  -5.8043  -5.8042  -5.7359  -5.7281  -5.7278
    -5.6145  -5.5320  -5.5317  -5.0501  -5.0497  -4.9818  -4.9815  -4.9066
    -4.9063  -4.8222  -4.7888  -4.7887  -4.7655  -4.1736  -4.1736  -4.1403
    -4.1182  -4.0716  -4.0445  -4.0443  -3.9462  -3.9460  -3.9149  -3.8316
    -3.4515  -3.4460  -3.4456  -3.2145  -3.2142  -3.2071  -3.0439  -2.9546
    -2.9542  -2.9433  -2.9432  -2.9317  -2.8039  -2.7238  -2.7235  -2.6435
    -2.6433  -2.4266  -2.4264  -2.2842  -1.6432  -1.6428  -1.6270  -1.6267
    -1.4913  -1.4908  -1.3327  -1.2581  -1.0576   0.8142   0.8146   0.8264
     0.8335   0.8339   0.8582   1.0243   1.0244   1.0728   1.0969   1.1212
     1.1214   1.2004   1.2010   1.2493   1.2495   1.3378   1.3773   1.3777
     1.5664   1.5968   1.5971   1.7161   1.7261   1.7977   2.0633   2.2025
     2.2029   2.2990   2.2995   2.6929   2.6932   2.7615   2.7686   2.7690
     2.9117   3.4566   3.7099   3.9110   4.1110   4.1111   4.3046   4.3046
     4.3318   4.3319   4.4917   4.5785   4.6099   4.6100   4.8293   5.0783
     5.0783   5.1919   5.3866   5.3867   5.4329   5.4330   5.6678   5.6680
     5.6838   5.6839   5.6890   5.6891   5.7516   5.8311   5.8312   5.8910
     6.0382   6.0382   6.3815   6.4334   6.4334

          k =-0.2333 0.4041 0.0000 ( 31596 PWs)   bands (ev):

   -56.6945 -56.6900 -56.6887 -56.6824 -56.6813 -56.6794 -56.6791 -56.6777
   -56.6756 -32.8764 -32.8756 -32.8641 -32.8436 -32.8284 -32.8274 -32.7511
   -32.7498 -32.7493 -32.7442 -32.7441 -32.7303 -32.7290 -32.7142 -32.7138
   -32.7127 -32.7127 -32.7098 -32.7086 -32.7013 -32.7007 -32.6986 -32.6957
   -32.6908 -32.6762 -32.6761 -32.6591 -14.9343 -14.6195 -14.6190 -14.0876
   -14.0718 -14.0714 -13.9441 -13.9436 -13.8199 -13.8194 -13.7909 -13.7099
   -13.6936 -13.6931 -13.5853 -13.5848 -13.5614 -13.5274  -6.3797  -6.3795
    -6.1309  -6.1241  -5.8536  -5.7963  -5.7962  -5.7513  -5.7509  -5.7205
    -5.5695  -5.5571  -5.5568  -5.0679  -5.0675  -4.9698  -4.9695  -4.9007
    -4.9004  -4.8288  -4.7771  -4.7370  -4.7369  -4.1480  -4.1124  -4.1124
    -4.0735  -4.0734  -4.0676  -4.0422  -3.9881  -3.9604  -3.9602  -3.7205
    -3.5053  -3.4376  -3.4372  -3.2807  -3.2804  -3.1858  -3.0321  -2.9660
    -2.9659  -2.9614  -2.9610  -2.8972  -2.8660  -2.7650  -2.7648  -2.6393
    -2.6391  -2.3913  -2.3911  -2.2782  -1.6290  -1.6286  -1.5993  -1.5990
    -1.4609  -1.4604  -1.3699  -1.2869  -1.0858   0.8098   0.8102   0.8371
     0.8375   0.8608   0.8882   1.0261   1.0263   1.0351   1.0801   1.1305
     1.1307   1.1645   1.1651   1.2564   1.2565   1.3119   1.3958   1.3962
     1.5086   1.5881   1.5884   1.6779   1.7775   1.7811   2.1037   2.2285
     2.2290   2.2746   2.2751   2.6707   2.6711   2.7214   2.7837   2.7840
     2.9025   3.5097   3.7515   3.9696   4.0678   4.0679   4.2628   4.2629
     4.2848   4.2849   4.4466   4.5653   4.5653   4.6697   4.8701   5.1155
     5.1155   5.2365   5.3879   5.3879   5.4235   5.4235   5.6216   5.6218
     5.7192   5.7192   5.7555   5.7556   5.7993   5.8632   5.8634   5.8994
     6.1105   6.1106   6.2828   6.4273   6.4275

          k =-0.2500 0.4330 0.0000 ( 31602 PWs)   bands (ev):

   -56.6941 -56.6903 -56.6890 -56.6821 -56.6811 -56.6793 -56.6791 -56.6779
   -56.6757 -32.8775 -32.8768 -32.8667 -32.8426 -32.8285 -32.8275 -32.7472
   -32.7447 -32.7443 -32.7433 -32.7409 -32.7312 -32.7300 -32.7165 -32.7158
   -32.7148 -32.7144 -32.7090 -32.7078 -32.7009 -32.7007 -32.6991 -32.6966
   -32.6964 -32.6751 -32.6749 -32.6609 -14.9071 -14.6446 -14.6441 -14.0753
   -14.0565 -14.0561 -13.9556 -13.9551 -13.8172 -13.8052 -13.8048 -13.7192
   -13.6863 -13.6859 -13.5785 -13.5780 -13.5738 -13.5327  -6.3871  -6.3869
    -6.1756  -6.0892  -5.8560  -5.7899  -5.7898  -5.7752  -5.7748  -5.7057
    -5.5789  -5.5787  -5.5215  -5.0886  -5.0882  -4.9571  -4.9568  -4.8955
    -4.8952  -4.8368  -4.7907  -4.6849  -4.6848  -4.1545  -4.0976  -4.0975
    -4.0649  -4.0630  -4.0537  -4.0536  -3.9721  -3.9719  -3.9660  -3.6088
    -3.5601  -3.4269  -3.4265  -3.3443  -3.3440  -3.1637  -3.0214  -2.9859
    -2.9858  -2.9677  -2.9673  -2.9325  -2.8626  -2.8088  -2.8085  -2.6389
    -2.6386  -2.3594  -2.3592  -2.2738  -1.6154  -1.6149  -1.5720  -1.5717
    -1.4303  -1.4298  -1.4062  -1.3175  -1.1193   0.8112   0.8116   0.8431
     0.8435   0.8917   0.9127   0.9964   1.0282   1.0284   1.0653   1.1335
     1.1341   1.1408   1.1409   1.2644   1.2645   1.2848   1.4138   1.4143
     1.4551   1.5836   1.5840   1.6391   1.7578   1.8302   2.1418   2.2501
     2.2506   2.2553   2.2558   2.6486   2.6491   2.6825   2.8003   2.8006
     2.8937   3.5629   3.7958   4.0264   4.0265   4.0287   4.2287   4.2288
     4.2404   4.2405   4.4019   4.5226   4.5227   4.7669   4.9135   5.1529
     5.1529   5.2801   5.3452   5.3452   5.4626   5.4626   5.5725   5.5727
     5.7545   5.7546   5.8215   5.8216   5.8508   5.8914   5.8924   5.8925
     6.1833   6.1850   6.1850   6.3834   6.3835

          k =-0.2667 0.4619 0.0000 ( 31600 PWs)   bands (ev):

   -56.6936 -56.6908 -56.6894 -56.6819 -56.6810 -56.6793 -56.6790 -56.6781
   -56.6757 -32.8784 -32.8777 -32.8690 -32.8410 -32.8291 -32.8281 -32.7431
   -32.7412 -32.7406 -32.7401 -32.7367 -32.7325 -32.7312 -32.7187 -32.7179
   -32.7166 -32.7160 -32.7085 -32.7074 -32.7022 -32.7007 -32.7001 -32.6988
   -32.6965 -32.6747 -32.6744 -32.6620 -14.8784 -14.6685 -14.6680 -14.0621
   -14.0407 -14.0403 -13.9665 -13.9660 -13.8452 -13.7926 -13.7921 -13.7283
   -13.6788 -13.6783 -13.5870 -13.5725 -13.5720 -13.5379  -6.3903  -6.3901
    -6.2179  -6.0522  -5.8535  -5.7997  -5.7994  -5.7859  -5.7858  -5.6912
    -5.5979  -5.5976  -5.4693  -5.1122  -5.1119  -4.9438  -4.9436  -4.8909
    -4.8906  -4.8443  -4.8067  -4.6346  -4.6345  -4.1585  -4.1419  -4.1180
    -4.1179  -4.0556  -3.9994  -3.9993  -3.9818  -3.9816  -3.8898  -3.6145
[...]
    -5.6231  -5.6038  -5.4144  -5.4141  -5.0312  -4.9056  -4.8557  -4.8554
    -4.8511  -4.8465  -4.8461  -4.8354  -4.2981  -4.2979  -4.1623  -4.1343
    -4.1340  -4.0878  -4.0488  -4.0485  -3.9456  -3.7561  -3.7558  -3.7105
    -3.6674  -3.6673  -3.3490  -3.3489  -3.2531  -3.0863  -3.0859  -3.0430
    -3.0428  -3.0029  -2.9863  -2.9685  -2.9683  -2.8046  -2.8044  -2.5447
    -2.5158  -2.3431  -2.3429  -2.3252  -1.6415  -1.6378  -1.5141  -1.4919
    -1.4914  -1.4215  -1.4212  -1.2256  -1.2251   0.7364   0.7482   0.9191
     0.9193   0.9472   0.9474   0.9760   0.9763   1.0366   1.0928   1.0934
     1.1332   1.1511   1.2149   1.2153   1.2384   1.3568   1.3572   1.4119
     1.4256   1.5029   1.5034   1.7658   1.7661   1.9638   1.9641   2.1520
     2.1521   2.2726   2.4157   2.6605   2.6606   2.7293   2.7567   2.8413
     2.8417   3.7174   3.7175   3.9389   3.9389   4.0331   4.1970   4.1970
     4.2129   4.4222   4.4438   4.4439   4.7172   4.9224   5.0532   5.0533
     5.0545   5.0547   5.1641   5.1931   5.1933   5.4768   5.5204   5.7378
     5.8519   5.8520   5.8603   5.9759   5.9760   6.0241   6.0246   6.0247
     6.1530   6.1830   6.1832   6.2326   6.3838

          k =-0.1333 0.5774 0.0000 ( 31598 PWs)   bands (ev):

   -56.6932 -56.6921 -56.6878 -56.6836 -56.6800 -56.6793 -56.6786 -56.6783
   -56.6757 -32.8847 -32.8666 -32.8661 -32.8456 -32.8454 -32.8095 -32.7639
   -32.7390 -32.7378 -32.7348 -32.7345 -32.7304 -32.7300 -32.7258 -32.7142
   -32.7136 -32.7126 -32.7092 -32.7065 -32.7022 -32.7013 -32.6999 -32.6990
   -32.6971 -32.6834 -32.6658 -32.6646 -14.8241 -14.8237 -14.5245 -14.1998
   -14.0375 -14.0370 -13.9003 -13.8710 -13.8706 -13.7943 -13.7732 -13.7727
   -13.7516 -13.6005 -13.6000 -13.5758 -13.5592 -13.5587  -6.4907  -6.2109
    -6.2108  -5.9849  -5.9845  -5.9308  -5.9307  -5.6512  -5.6304  -5.6172
    -5.6169  -5.6016  -5.4303  -5.4300  -5.0415  -4.9072  -4.8817  -4.8540
    -4.8537  -4.8448  -4.8445  -4.7968  -4.2899  -4.2897  -4.1954  -4.1297
    -4.1294  -4.0762  -4.0528  -4.0525  -3.9393  -3.7537  -3.7534  -3.7423
    -3.6615  -3.6615  -3.3744  -3.3743  -3.2272  -3.0876  -3.0871  -3.0201
    -3.0199  -3.0049  -2.9867  -2.9634  -2.9632  -2.8162  -2.8161  -2.5087
    -2.5019  -2.3543  -2.3542  -2.3322  -1.6570  -1.6396  -1.5317  -1.4857
    -1.4852  -1.4215  -1.4212  -1.2217  -1.2213   0.7276   0.7390   0.9236
     0.9238   0.9497   0.9499   0.9735   0.9738   1.0374   1.0992   1.0998
     1.1449   1.1530   1.2170   1.2175   1.2351   1.3644   1.3648   1.3938
     1.4254   1.4970   1.4975   1.7839   1.7841   1.9528   1.9532   2.1286
     2.1286   2.2658   2.4408   2.6742   2.6744   2.7451   2.7505   2.8364
     2.8367   3.7097   3.7098   3.9324   3.9325   4.0232   4.1886   4.1887
     4.2490   4.4589   4.4787   4.4789   4.7546   4.8811   5.0397   5.0399
     5.0470   5.0471   5.1189   5.1557   5.1558   5.4298   5.5557   5.7168
     5.8686   5.8687   5.9057   5.9901   6.0037   6.0038   6.0171   6.0172
     6.1734   6.1735   6.1793   6.1891   6.4185

          k =-0.1167 0.5774 0.0000 ( 31602 PWs)   bands (ev):

   -56.6932 -56.6922 -56.6875 -56.6838 -56.6799 -56.6793 -56.6786 -56.6784
   -56.6757 -32.8850 -32.8654 -32.8650 -32.8471 -32.8468 -32.8072 -32.7670
   -32.7390 -32.7379 -32.7349 -32.7346 -32.7310 -32.7306 -32.7250 -32.7150
   -32.7132 -32.7121 -32.7090 -32.7052 -32.7021 -32.7012 -32.6999 -32.6991
   -32.6971 -32.6843 -32.6653 -32.6640 -14.8275 -14.8270 -14.5045 -14.2199
   -14.0391 -14.0386 -13.8912 -13.8631 -13.8627 -13.7959 -13.7770 -13.7765
   -13.7609 -13.5971 -13.5966 -13.5768 -13.5606 -13.5602  -6.4967  -6.1942
    -6.1941  -5.9892  -5.9888  -5.9467  -5.9466  -5.6343  -5.6165  -5.6102
    -5.6099  -5.5999  -5.4459  -5.4456  -5.0508  -4.9102  -4.9094  -4.8526
    -4.8523  -4.8437  -4.8434  -4.7580  -4.2820  -4.2817  -4.2291  -4.1251
    -4.1248  -4.0641  -4.0569  -4.0566  -3.9350  -3.7730  -3.7518  -3.7514
    -3.6538  -3.6538  -3.3994  -3.3993  -3.2027  -3.0887  -3.0882  -3.0077
    -2.9980  -2.9978  -2.9873  -2.9577  -2.9576  -2.8280  -2.8278  -2.4884
    -2.4758  -2.3655  -2.3654  -2.3397  -1.6735  -1.6422  -1.5453  -1.4801
    -1.4796  -1.4225  -1.4222  -1.2176  -1.2171   0.7226   0.7289   0.9283
     0.9285   0.9521   0.9523   0.9714   0.9717   1.0362   1.1055   1.1061
     1.1550   1.1572   1.2193   1.2198   1.2295   1.3728   1.3731   1.3754
     1.4238   1.4913   1.4919   1.8025   1.8027   1.9436   1.9439   2.1058
     2.1059   2.2588   2.4652   2.6875   2.6878   2.7317   2.7660   2.8293
     2.8297   3.7029   3.7030   3.9267   3.9268   4.0138   4.1812   4.1812
     4.2856   4.4962   4.5152   4.5153   4.7925   4.8397   5.0266   5.0269
     5.0415   5.0415   5.0740   5.1157   5.1158   5.3834   5.5916   5.6977
     5.8868   5.8869   5.9503   5.9595   6.0105   6.0106   6.0317   6.0317
     6.1461   6.1614   6.1615   6.2025   6.4145

          k =-0.1000 0.5774 0.0000 ( 31588 PWs)   bands (ev):

   -56.6933 -56.6922 -56.6873 -56.6841 -56.6798 -56.6793 -56.6785 -56.6784
   -56.6756 -32.8853 -32.8642 -32.8637 -32.8480 -32.8477 -32.8046 -32.7704
   -32.7389 -32.7378 -32.7346 -32.7344 -32.7316 -32.7312 -32.7242 -32.7157
   -32.7128 -32.7117 -32.7084 -32.7036 -32.7017 -32.7009 -32.6997 -32.6990
   -32.6970 -32.6859 -32.6651 -32.6638 -14.8305 -14.8300 -14.4845 -14.2401
   -14.0404 -14.0399 -13.8820 -13.8554 -13.8549 -13.7972 -13.7811 -13.7807
   -13.7702 -13.5936 -13.5932 -13.5775 -13.5623 -13.5618  -6.5017  -6.1770
    -6.1769  -5.9930  -5.9927  -5.9628  -5.9628  -5.6192  -5.6034  -5.6024
    -5.6021  -5.5984  -5.4608  -5.4605  -5.0583  -4.9379  -4.9107  -4.8511
    -4.8508  -4.8427  -4.8424  -4.7191  -4.2758  -4.2756  -4.2638  -4.1200
    -4.1197  -4.0611  -4.0608  -4.0509  -3.9307  -3.8023  -3.7499  -3.7495
    -3.6441  -3.6441  -3.4237  -3.4236  -3.1793  -3.0895  -3.0890  -3.0119
    -2.9877  -2.9775  -2.9773  -2.9514  -2.9512  -2.8392  -2.8390  -2.4752
    -2.4457  -2.3764  -2.3763  -2.3476  -1.6878  -1.6423  -1.5604  -1.4733
    -1.4728  -1.4237  -1.4234  -1.2150  -1.2145   0.7151   0.7214   0.9312
     0.9314   0.9552   0.9554   0.9705   0.9708   1.0356   1.1121   1.1127
     1.1583   1.1698   1.2211   1.2216   1.2237   1.3573   1.3828   1.3831
     1.4236   1.4852   1.4857   1.8231   1.8233   1.9358   1.9361   2.0830
     2.0831   2.2526   2.4888   2.7012   2.7014   2.7177   2.7815   2.8239
     2.8243   3.6968   3.6969   3.9218   3.9218   4.0059   4.1746   4.1747
     4.3226   4.5340   4.5532   4.5534   4.7983   4.8310   5.0151   5.0154
     5.0296   5.0367   5.0367   5.0743   5.0745   5.3375   5.6280   5.6814
     5.9065   5.9067   5.9326   5.9932   6.0048   6.0049   6.0599   6.0599
     6.1034   6.1475   6.1476   6.2224   6.3899

          k =-0.0833 0.5774 0.0000 ( 31578 PWs)   bands (ev):

   -56.6933 -56.6922 -56.6870 -56.6843 -56.6798 -56.6793 -56.6785 -56.6784
   -56.6757 -32.8857 -32.8627 -32.8623 -32.8496 -32.8493 -32.8016 -32.7735
   -32.7390 -32.7379 -32.7348 -32.7346 -32.7321 -32.7317 -32.7229 -32.7163
   -32.7122 -32.7111 -32.7082 -32.7020 -32.7016 -32.7010 -32.6999 -32.6990
   -32.6971 -32.6872 -32.6643 -32.6630 -14.8329 -14.8325 -14.4643 -14.2603
   -14.0415 -14.0410 -13.8727 -13.8478 -13.8474 -13.7984 -13.7857 -13.7852
   -13.7795 -13.5903 -13.5899 -13.5782 -13.5641 -13.5636  -6.5061  -6.1595
    -6.1594  -5.9961  -5.9958  -5.9799  -5.9798  -5.6053  -5.5974  -5.5938
    -5.5935  -5.5916  -5.4757  -5.4754  -5.0639  -4.9633  -4.9123  -4.8496
    -4.8493  -4.8424  -4.8421  -4.6800  -4.2988  -4.2698  -4.2695  -4.1153
    -4.1150  -4.0655  -4.0652  -4.0362  -3.9280  -3.8298  -3.7486  -3.7482
    -3.6330  -3.6330  -3.4475  -3.4474  -3.1571  -3.0890  -3.0885  -3.0175
    -2.9885  -2.9591  -2.9589  -2.9444  -2.9443  -2.8505  -2.8504  -2.4624
    -2.4192  -2.3867  -2.3865  -2.3558  -1.7017  -1.6412  -1.5727  -1.4679
    -1.4675  -1.4256  -1.4253  -1.2110  -1.2106   0.7102   0.7152   0.9358
     0.9360   0.9567   0.9569   0.9690   0.9693   1.0342   1.1174   1.1180
     1.1636   1.1843   1.2199   1.2245   1.2250   1.3399   1.3907   1.3911
     1.4225   1.4789   1.4795   1.8420   1.8422   1.9283   1.9287   2.0601
     2.0602   2.2456   2.5129   2.7043   2.7152   2.7155   2.7926   2.8156
     2.8159   3.6918   3.6919   3.9176   3.9176   3.9989   4.1690   4.1691
     4.3603   4.5725   4.5927   4.5928   4.7572   4.8702   4.9856   5.0055
     5.0057   5.0309   5.0310   5.0326   5.0327   5.2921   5.6649   5.6673
     5.9092   5.9269   5.9271   6.0001   6.0002   6.0349   6.0612   6.0880
     6.0881   6.1319   6.1320   6.2376   6.3644

          k =-0.0667 0.5774 0.0000 ( 31562 PWs)   bands (ev):

   -56.6933 -56.6922 -56.6866 -56.6846 -56.6798 -56.6793 -56.6784 -56.6784
   -56.6756 -32.8859 -32.8614 -32.8609 -32.8509 -32.8507 -32.7996 -32.7763
   -32.7391 -32.7379 -32.7345 -32.7343 -32.7325 -32.7322 -32.7218 -32.7168
   -32.7120 -32.7108 -32.7073 -32.7014 -32.7009 -32.6999 -32.6998 -32.6990
   -32.6970 -32.6886 -32.6641 -32.6627 -14.8350 -14.8345 -14.4441 -14.2807
   -14.0424 -14.0419 -13.8634 -13.8405 -13.8400 -13.7993 -13.7905 -13.7901
   -13.7888 -13.5871 -13.5867 -13.5788 -13.5660 -13.5655  -6.5095  -6.1417
    -6.1416  -5.9988  -5.9984  -5.9972  -5.9972  -5.5964  -5.5932  -5.5846
    -5.5843  -5.5818  -5.4899  -5.4896  -5.0673  -4.9865  -4.9126  -4.8483
    -4.8480  -4.8422  -4.8418  -4.6399  -4.3346  -4.2652  -4.2650  -4.1102
    -4.1099  -4.0700  -4.0697  -4.0216  -3.9249  -3.8555  -3.7477  -3.7473
    -3.6201  -3.6201  -3.4706  -3.4705  -3.1369  -3.0895  -3.0890  -3.0246
    -2.9890  -2.9432  -2.9430  -2.9369  -2.9368  -2.8615  -2.8614  -2.4497
    -2.3966  -2.3959  -2.3957  -2.3645  -1.7118  -1.6395  -1.5843  -1.4619
    -1.4615  -1.4280  -1.4276  -1.2088  -1.2084   0.7063   0.7094   0.9387
     0.9390   0.9584   0.9586   0.9679   0.9682   1.0344   1.1214   1.1220
     1.1684   1.1993   1.2130   1.2260   1.2265   1.3254   1.4004   1.4008
     1.4219   1.4715   1.4720   1.8630   1.8632   1.9222   1.9225   2.0374
     2.0376   2.2412   2.5377   2.6871   2.7287   2.7289   2.8035   2.8078
     2.8081   3.6875   3.6876   3.9141   3.9142   3.9937   4.1644   4.1645
     4.3983   4.6115   4.6335   4.6336   4.7161   4.9098   4.9421   4.9870
     4.9871   4.9975   4.9977   5.0293   5.0293   5.2474   5.6563   5.7024
     5.8900   5.9482   5.9483   5.9962   5.9963   6.0195   6.0748   6.1146
     6.1148   6.1163   6.1163   6.2466   6.3382

          k =-0.0500 0.5774 0.0000 ( 31546 PWs)   bands (ev):

   -56.6933 -56.6922 -56.6863 -56.6847 -56.6797 -56.6793 -56.6784 -56.6784
   -56.6756 -32.8860 -32.8602 -32.8598 -32.8525 -32.8523 -32.7964 -32.7792
   -32.7391 -32.7379 -32.7347 -32.7344 -32.7327 -32.7324 -32.7207 -32.7173
   -32.7116 -32.7105 -32.7070 -32.7011 -32.7007 -32.6996 -32.6992 -32.6980
   -32.6971 -32.6898 -32.6636 -32.6622 -14.8366 -14.8361 -14.4237 -14.3010
   -14.0431 -14.0426 -13.8541 -13.8333 -13.8328 -13.8000 -13.7981 -13.7957
   -13.7953 -13.5841 -13.5836 -13.5792 -13.5681 -13.5677  -6.5123  -6.1237
    -6.1236  -6.0149  -6.0149  -6.0008  -6.0004  -5.5956  -5.5831  -5.5750
    -5.5747  -5.5735  -5.5038  -5.5035  -5.0679  -5.0073  -4.9133  -4.8471
    -4.8468  -4.8424  -4.8421  -4.6006  -4.3708  -4.2614  -4.2611  -4.1050
    -4.1047  -4.0744  -4.0741  -4.0047  -3.9227  -3.8803  -3.7469  -3.7465
    -3.6057  -3.6057  -3.4929  -3.4928  -3.1176  -3.0894  -3.0889  -3.0330
    -2.9893  -2.9302  -2.9300  -2.9292  -2.9290  -2.8723  -2.8722  -2.4376
    -2.4035  -2.4034  -2.3783  -2.3735  -1.7213  -1.6351  -1.5952  -1.4571
    -1.4567  -1.4310  -1.4307  -1.2065  -1.2060   0.7030   0.7069   0.9414
     0.9417   0.9597   0.9599   0.9669   0.9671   1.0339   1.1252   1.1259
     1.1748   1.2075   1.2157   1.2281   1.2286   1.3093   1.4088   1.4092
     1.4214   1.4644   1.4649   1.8836   1.8838   1.9177   1.9180   2.0151
     2.0153   2.2378   2.5609   2.6724   2.7397   2.7400   2.7990   2.7993
     2.8116   3.6843   3.6844   3.9114   3.9115   3.9892   4.1608   4.1609
     4.4368   4.6511   4.6754   4.6755   4.6757   4.8990   4.9418   4.9420
     4.9501   4.9913   4.9915   5.0267   5.0267   5.2032   5.6475   5.7403
     5.8750   5.9697   5.9698   5.9782   5.9932   5.9933   6.0961   6.0963
     6.1126   6.1445   6.1445   6.2492   6.3114

          k =-0.0333 0.5774 0.0000 ( 31552 PWs)   bands (ev):

   -56.6933 -56.6922 -56.6860 -56.6850 -56.6797 -56.6793 -56.6784 -56.6784
   -56.6757 -32.8864 -32.8589 -32.8585 -32.8539 -32.8536 -32.7935 -32.7820
   -32.7389 -32.7377 -32.7345 -32.7343 -32.7330 -32.7327 -32.7199 -32.7178
   -32.7114 -32.7102 -32.7067 -32.7010 -32.7007 -32.6997 -32.6996 -32.6974
   -32.6966 -32.6909 -32.6641 -32.6627 -14.8377 -14.8372 -14.4033 -14.3214
   -14.0437 -14.0432 -13.8448 -13.8264 -13.8259 -13.8074 -13.8014 -13.8009
   -13.8004 -13.5811 -13.5806 -13.5795 -13.5704 -13.5700  -6.5142  -6.1056
    -6.1055  -6.0329  -6.0329  -6.0025  -6.0021  -5.5952  -5.5747  -5.5683
    -5.5650  -5.5646  -5.5171  -5.5168  -5.0657  -5.0250  -4.9135  -4.8460
    -4.8457  -4.8427  -4.8424  -4.5616  -4.4080  -4.2599  -4.2596  -4.0998
    -4.0995  -4.0792  -4.0789  -3.9866  -3.9211  -3.9039  -3.7463  -3.7459
    -3.5899  -3.5899  -3.5144  -3.5143  -3.0998  -3.0898  -3.0893  -3.0431
    -2.9898  -2.9211  -2.9209  -2.9202  -2.9200  -2.8828  -2.8827  -2.4258
    -2.4094  -2.4092  -2.3831  -2.3651  -1.7279  -1.6312  -1.6037  -1.4520
    -1.4516  -1.4343  -1.4340  -1.2072  -1.2068   0.7018   0.7037   0.9418
     0.9420   0.9609   0.9612   0.9653   0.9656   1.0311   1.1283   1.1289
     1.1805   1.2013   1.2288   1.2294   1.2308   1.2929   1.4180   1.4185
     1.4211   1.4564   1.4569   1.9049   1.9050   1.9151   1.9154   1.9905
     1.9907   2.2344   2.5822   2.6569   2.7513   2.7516   2.7899   2.7902
     2.8169   3.6818   3.6819   3.9095   3.9096   3.9862   4.1582   4.1583
     4.4757   4.6348   4.6912   4.7184   4.7186   4.8565   4.8968   4.8969
     4.9865   4.9868   4.9909   5.0248   5.0249   5.1595   5.6413   5.7788
     5.8640   5.9374   5.9908   5.9909   5.9915   5.9916   6.0766   6.0767
     6.1480   6.1727   6.1727   6.2427   6.2841

          k =-0.0167 0.5774 0.0000 ( 31560 PWs)   bands (ev):

   -56.6934 -56.6923 -56.6857 -56.6853 -56.6797 -56.6793 -56.6784 -56.6784
   -56.6757 -32.8861 -32.8580 -32.8576 -32.8549 -32.8547 -32.7910 -32.7853
   -32.7389 -32.7378 -32.7344 -32.7342 -32.7331 -32.7329 -32.7192 -32.7184
   -32.7116 -32.7104 -32.7070 -32.7008 -32.7005 -32.6995 -32.6995 -32.6973
   -32.6955 -32.6921 -32.6643 -32.6630 -14.8384 -14.8379 -14.3829 -14.3420
   -14.0440 -14.0435 -13.8354 -13.8197 -13.8192 -13.8167 -13.8072 -13.8067
   -13.8008 -13.5798 -13.5782 -13.5777 -13.5728 -13.5724  -6.5154  -6.0875
    -6.0875  -6.0509  -6.0509  -6.0036  -6.0032  -5.5947  -5.5691  -5.5662
    -5.5538  -5.5535  -5.5298  -5.5295  -5.0604  -5.0400  -4.9144  -4.8450
    -4.8447  -4.8432  -4.8429  -4.5228  -4.4457  -4.2590  -4.2587  -4.0942
    -4.0939  -4.0843  -4.0840  -3.9681  -3.9265  -3.9201  -3.7458  -3.7455
    -3.5728  -3.5727  -3.5350  -3.5349  -3.0907  -3.0902  -3.0836  -3.0551
    -2.9895  -2.9144  -2.9142  -2.9122  -2.9120  -2.8928  -2.8926  -2.4146
    -2.4130  -2.4129  -2.3931  -2.3571  -1.7336  -1.6271  -1.6114  -1.4467
    -1.4463  -1.4386  -1.4382  -1.2077  -1.2072   0.7006   0.7012   0.9417
     0.9420   0.9626   0.9628   0.9637   0.9640   1.0316   1.1301   1.1308
     1.1843   1.1950   1.2287   1.2292   1.2461   1.2760   1.4213   1.4277
     1.4281   1.4462   1.4467   1.9129   1.9132   1.9269   1.9271   1.9691
     1.9692   2.2345   2.6022   2.6389   2.7611   2.7613   2.7823   2.7826
     2.8205   3.6804   3.6805   3.9084   3.9085   3.9841   4.1566   4.1567
     4.5149   4.5944   4.7317   4.7621   4.7623   4.8144   4.8518   4.8520
     4.9837   4.9840   5.0237   5.0238   5.0321   5.1165   5.6371   5.8177
     5.8577   5.8970   5.9894   5.9895   6.0133   6.0134   6.0560   6.0561
     6.1795   6.2009   6.2010   6.2280   6.2566

          k = 0.0000 0.5774 0.0000 ( 31588 PWs)   bands (ev):

   -56.6933 -56.6922 -56.6856 -56.6856 -56.6798 -56.6793 -56.6785 -56.6785
   -56.6757 -32.8860 -32.8573 -32.8571 -32.8560 -32.8558 -32.7884 -32.7883
   -32.7386 -32.7374 -32.7347 -32.7345 -32.7334 -32.7333 -32.7192 -32.7191
   -32.7115 -32.7103 -32.7066 -32.7010 -32.7006 -32.6998 -32.6998 -32.6975
   -32.6944 -32.6941 -32.6642 -32.6628 -14.8386 -14.8381 -14.3625 -14.3625
   -14.0440 -14.0436 -13.8261 -13.8261 -13.8135 -13.8133 -13.8129 -13.8127
   -13.8009 -13.5798 -13.5756 -13.5755 -13.5750 -13.5748  -6.5158  -6.0695
    -6.0695  -6.0691  -6.0691  -6.0037  -6.0033  -5.5945  -5.5668  -5.5668
    -5.5424  -5.5424  -5.5420  -5.5420  -5.0520  -5.0520  -4.9143  -4.8443
    -4.8442  -4.8439  -4.8438  -4.4844  -4.4843  -4.2582  -4.2579  -4.0896
    -4.0895  -4.0892  -4.0891  -3.9484  -3.9483  -3.9195  -3.7453  -3.7449
    -3.5547  -3.5546  -3.5544  -3.5544  -3.0910  -3.0905  -3.0688  -3.0688
    -2.9895  -2.9122  -2.9120  -2.9032  -2.9031  -2.9028  -2.9027  -2.4141
    -2.4140  -2.4038  -2.4038  -2.3542  -1.7347  -1.6220  -1.6219  -1.4434
    -1.4432  -1.4430  -1.4428  -1.2062  -1.2058   0.6987   0.6987   0.9426
     0.9429   0.9622   0.9623   0.9624   0.9627   1.0345   1.1323   1.1329
     1.1886   1.1887   1.2286   1.2291   1.2596   1.2597   1.4213   1.4354
     1.4357   1.4360   1.4364   1.9125   1.9128   1.9456   1.9458   1.9462
     1.9464   2.2344   2.6198   2.6199   2.7708   2.7710   2.7713   2.7716
     2.8225   3.6800   3.6800   3.9080   3.9081   3.9835   4.1562   4.1562
     4.5544   4.5544   4.7728   4.7728   4.8063   4.8064   4.8066   4.8068
     4.9829   4.9831   5.0233   5.0234   5.0740   5.0740   5.6360   5.8555
     5.8571   5.8571   5.9890   5.9891   6.0347   6.0348   6.0349   6.0349
     6.2063   6.2063   6.2287   6.2287   6.2288

     Writing output data file ./outdir/nbse2.save/
 
     init_run     :      2.74s CPU      3.53s WALL (       1 calls)
     electrons    :   2116.16s CPU   2203.40s WALL (       1 calls)

     Called by init_run:
     wfcinit      :      0.00s CPU      0.00s WALL (       1 calls)
     potinit      :      0.44s CPU      0.65s WALL (       1 calls)
     hinit0       :      1.10s CPU      1.16s WALL (       1 calls)

     Called by electrons:
     c_bands      :   2116.15s CPU   2203.31s WALL (       1 calls)
     v_of_rho     :      0.19s CPU      0.35s WALL (       1 calls)
     newd         :      0.27s CPU      0.56s WALL (       1 calls)
     PAW_pot      :      0.15s CPU      0.16s WALL (       1 calls)

     Called by c_bands:
     init_us_2    :      0.89s CPU      1.18s WALL (      61 calls)
     cegterg      :   2083.17s CPU   2165.29s WALL (     314 calls)

     Called by *egterg:
     cdiaghg      :    388.07s CPU    389.05s WALL (    5948 calls)
     h_psi        :    791.12s CPU    859.08s WALL (    6262 calls)
     s_psi        :    159.63s CPU    160.65s WALL (    6262 calls)
     g_psi        :      3.37s CPU      3.38s WALL (    5887 calls)

     Called by h_psi:
     h_psi:calbec :    187.68s CPU    195.44s WALL (    6262 calls)
     vloc_psi     :    420.36s CPU    478.95s WALL (    6262 calls)
     add_vuspsi   :    165.42s CPU    166.91s WALL (    6262 calls)

     General routines
     calbec       :    187.62s CPU    195.39s WALL (    6262 calls)
     fft          :      0.15s CPU      0.33s WALL (      13 calls)
     ffts         :      0.00s CPU      0.00s WALL (       1 calls)
     fftw         :    368.42s CPU    422.71s WALL ( 1018082 calls)
     interpolate  :      0.01s CPU      0.01s WALL (       1 calls)
     davcio       :      0.12s CPU      0.83s WALL (     122 calls)
 
     Parallel routines
     fft_scatt_xy :     56.90s CPU     61.22s WALL ( 1018096 calls)
     fft_scatt_yz :    162.83s CPU    200.01s WALL ( 1018096 calls)
 
     PWSCF        :  35m26.66s CPU  37m 1.52s WALL

 
   This run was terminated on:  21:51:33   5Sep2020            

=------------------------------------------------------------------------------=
   JOB DONE.
=------------------------------------------------------------------------------=
