
     Program BANDS v.6.6 starts on  5Sep2020 at 22:16:51 

     This program is part of the open-source Quantum ESPRESSO suite
     for quantum simulation of materials; please cite
         "P. Giannozzi et al., J. Phys.:Condens. Matter 21 395502 (2009);
         "P. Giannozzi et al., J. Phys.:Condens. Matter 29 465901 (2017);
          URL http://www.quantum-espresso.org", 
     in publications or presentations arising from this work. More details at
     http://www.quantum-espresso.org/quote

     Parallel version (MPI), running on    44 processors

     MPI processes distributed on     1 nodes
     R & G space division:  proc/nbgrp/npool/nimage =      44
     Fft bands division:     nmany     =       1

     Reading xml data from directory:

     ./outdir/nbse2.save/
     file Nb.pbe-spn-kjpaw_psl.0.3.0.UPF: wavefunction(s)  4S 4P renormalized

     IMPORTANT: XC functional enforced from input :
     Exchange-correlation= PBE
                           (   1   4   3   4   0   0   0)
     Any further DFT definition will be discarded
     Please, verify this is what you really want

 
     Parallelization info
     --------------------
     sticks:   dense  smooth     PW     G-vecs:    dense   smooth      PW
     Min         141      61     16                20035     5743     810
     Max         142      62     17                20043     5752     817
     Sum        6205    2713    745               881733   252933   35857
 

     Check: negative core charge=   -0.000003

     negative rho (up, down):  1.929E-02 0.000E+00
     Reading collected, re-writing distributed wavefunctions
     high-symmetry point:  0.0000 0.5774 0.0000   x coordinate   0.0000
     high-symmetry point:  0.0000 0.0000 0.0000   x coordinate   0.5774
     high-symmetry point: -0.3333 0.5774 0.0000   x coordinate   1.2440
     high-symmetry point:  0.0000 0.5774 0.0000   x coordinate   1.5774

     Plottable bands (eV) written to file nbse2.bands.dat.gnu
     Bands written to file nbse2.bands.dat

 **************************************************************************

                    xk=(   0.00000,   0.57735,   0.00000  )

     point group C_2v (mm2) 
     there are  4 classes
     the character table:

       E     C2    s_v   s_v' 
A_1    1.00  1.00  1.00  1.00
A_2    1.00  1.00 -1.00 -1.00
B_1    1.00 -1.00  1.00 -1.00
B_2    1.00 -1.00 -1.00  1.00

     the symmetry operations in each class and the name of the first element:

     E        1
                                                                 
     C2       2
                                                                 
     s_v      3
                                                                 
     s_v'     4
                                                                 

     Band symmetry, C_2v (mm2)  point group:

     e(  1 -  1) =    -56.69332  eV     1   --> A_1  D_1  S_1  
     e(  2 -  2) =    -56.69222  eV     1   --> A_1  D_1  S_1  
     e(  3 -  4) =    -56.68564  eV     2   --> A_1  D_1  S_1  
     e(  3 -  4) =    -56.68564  eV     2   --> B_1  D_3  S_3  
     e(  5 -  5) =    -56.67975  eV     1   --> A_1  D_1  S_1  
     e(  6 -  6) =    -56.67926  eV     1   --> A_1  D_1  S_1  
     e(  7 -  8) =    -56.67850  eV     2   -->   2 B_1  D_3  S_3  
     e(  9 -  9) =    -56.67571  eV     1   --> A_1  D_1  S_1  
     e( 10 - 10) =    -32.88599  eV     1   --> A_1  D_1  S_1  
     e( 11 - 11) =    -32.85732  eV     1   --> B_1  D_3  S_3  
     e( 12 - 12) =    -32.85709  eV     1   --> A_1  D_1  S_1  
     e( 13 - 13) =    -32.85602  eV     1   --> A_1  D_1  S_1  
     e( 14 - 14) =    -32.85579  eV     1   --> B_1  D_3  S_3  
     e( 15 - 15) =    -32.78842  eV     1   --> A_1  D_1  S_1  
     e( 16 - 16) =    -32.78829  eV     1   --> B_1  D_3  S_3  
     e( 17 - 17) =    -32.73857  eV     1   --> B_2  D_4  S_4  
     e( 18 - 18) =    -32.73740  eV     1   --> B_2  D_4  S_4  
     e( 19 - 19) =    -32.73473  eV     1   --> A_1  D_1  S_1  
     e( 20 - 20) =    -32.73452  eV     1   --> B_1  D_3  S_3  
     e( 21 - 21) =    -32.73345  eV     1   --> B_1  D_3  S_3  
     e( 22 - 22) =    -32.73327  eV     1   --> A_1  D_1  S_1  
     e( 23 - 24) =    -32.71920  eV     2   --> A_2  D_2  S_2  
     e( 23 - 24) =    -32.71920  eV     2   --> B_2  D_4  S_4  
     e( 25 - 25) =    -32.71148  eV     1   --> A_1  D_1  S_1  
     e( 26 - 26) =    -32.71029  eV     1   --> A_1  D_1  S_1  
     e( 27 - 27) =    -32.70665  eV     1   --> B_1  D_3  S_3  
     e( 28 - 28) =    -32.70096  eV     1   --> B_2  D_4  S_4  
     e( 29 - 29) =    -32.70061  eV     1   --> B_2  D_4  S_4  
     e( 30 - 31) =    -32.69977  eV     2   -->   2 A_2  D_2  S_2  
     e( 32 - 32) =    -32.69748  eV     1   --> B_2  D_4  S_4  
     e( 33 - 33) =    -32.69443  eV     1   --> B_1  D_3  S_3  
     e( 34 - 34) =    -32.69411  eV     1   --> A_1  D_1  S_1  
     e( 35 - 35) =    -32.66419  eV     1   --> B_1  D_3  S_3  
     e( 36 - 36) =    -32.66281  eV     1   --> B_1  D_3  S_3  
     e( 37 - 37) =    -14.83861  eV     1   --> A_1  D_1  S_1  
     e( 38 - 38) =    -14.83814  eV     1   --> A_1  D_1  S_1  
     e( 39 - 40) =    -14.36247  eV     2   --> A_1  D_1  S_1  
     e( 39 - 40) =    -14.36247  eV     2   --> B_1  D_3  S_3  
     e( 41 - 41) =    -14.04405  eV     1   --> B_2  D_4  S_4  
     e( 42 - 42) =    -14.04356  eV     1   --> B_2  D_4  S_4  
     e( 43 - 44) =    -13.82612  eV     2   --> A_2  D_2  S_2  
     e( 43 - 44) =    -13.82612  eV     2   --> B_2  D_4  S_4  
     e( 45 - 45) =    -13.81348  eV     1   --> B_1  D_3  S_3  
     e( 46 - 46) =    -13.81333  eV     1   --> A_1  D_1  S_1  
     e( 47 - 47) =    -13.81287  eV     1   --> A_1  D_1  S_1  
     e( 48 - 48) =    -13.81270  eV     1   --> B_1  D_3  S_3  
     e( 49 - 49) =    -13.80093  eV     1   --> A_1  D_1  S_1  
     e( 50 - 50) =    -13.57981  eV     1   --> B_2  D_4  S_4  
     e( 51 - 51) =    -13.57565  eV     1   --> A_2  D_2  S_2  
     e( 52 - 52) =    -13.57548  eV     1   --> B_2  D_4  S_4  
     e( 53 - 53) =    -13.57496  eV     1   --> B_2  D_4  S_4  
     e( 54 - 54) =    -13.57485  eV     1   --> A_2  D_2  S_2  
     e( 55 - 55) =     -6.51578  eV     1   --> A_1  D_1  S_1  
     e( 56 - 57) =     -6.06950  eV     2   --> A_1  D_1  S_1  
     e( 56 - 57) =     -6.06950  eV     2   --> B_1  D_3  S_3  
     e( 58 - 59) =     -6.06912  eV     2   --> A_1  D_1  S_1  
     e( 58 - 59) =     -6.06912  eV     2   --> B_1  D_3  S_3  
     e( 60 - 60) =     -6.00370  eV     1   --> A_1  D_1  S_1  
     e( 61 - 61) =     -6.00332  eV     1   --> A_1  D_1  S_1  
     e( 62 - 62) =     -5.59449  eV     1   --> B_2  D_4  S_4  
     e( 63 - 64) =     -5.56676  eV     2   --> A_1  D_1  S_1  
     e( 63 - 64) =     -5.56676  eV     2   --> B_1  D_3  S_3  
     e( 65 - 66) =     -5.54238  eV     2   --> A_2  D_2  S_2  
     e( 65 - 66) =     -5.54238  eV     2   --> B_2  D_4  S_4  
     e( 67 - 68) =     -5.54203  eV     2   --> A_2  D_2  S_2  
     e( 67 - 68) =     -5.54203  eV     2   --> B_2  D_4  S_4  
     e( 69 - 70) =     -5.05199  eV     2   --> A_1  D_1  S_1  
     e( 69 - 70) =     -5.05199  eV     2   --> B_1  D_3  S_3  
     e( 71 - 71) =     -4.91432  eV     1   --> A_1  D_1  S_1  
     e( 72 - 72) =     -4.84434  eV     1   --> B_1  D_3  S_3  
     e( 73 - 73) =     -4.84421  eV     1   --> A_1  D_1  S_1  
     e( 74 - 74) =     -4.84387  eV     1   --> A_1  D_1  S_1  
     e( 75 - 75) =     -4.84376  eV     1   --> B_1  D_3  S_3  
     e( 76 - 77) =     -4.48435  eV     2   --> A_2  D_2  S_2  
     e( 76 - 77) =     -4.48435  eV     2   --> B_2  D_4  S_4  
     e( 78 - 78) =     -4.25823  eV     1   --> A_1  D_1  S_1  
     e( 79 - 79) =     -4.25793  eV     1   --> A_1  D_1  S_1  
     e( 80 - 81) =     -4.08957  eV     2   --> A_2  D_2  S_2  
     e( 80 - 81) =     -4.08957  eV     2   --> B_2  D_4  S_4  
     e( 82 - 83) =     -4.08922  eV     2   --> A_2  D_2  S_2  
     e( 82 - 83) =     -4.08922  eV     2   --> B_2  D_4  S_4  
     e( 84 - 85) =     -3.94837  eV     2   --> A_2  D_2  S_2  
     e( 84 - 85) =     -3.94837  eV     2   --> B_2  D_4  S_4  
     e( 86 - 86) =     -3.91955  eV     1   --> A_2  D_2  S_2  
     e( 87 - 87) =     -3.74529  eV     1   --> B_2  D_4  S_4  
     e( 88 - 88) =     -3.74492  eV     1   --> B_2  D_4  S_4  
     e( 89 - 90) =     -3.55469  eV     2   --> A_1  D_1  S_1  
     e( 89 - 90) =     -3.55469  eV     2   --> B_1  D_3  S_3  
     e( 91 - 92) =     -3.55441  eV     2   --> A_1  D_1  S_1  
     e( 91 - 92) =     -3.55441  eV     2   --> B_1  D_3  S_3  
     e( 93 - 93) =     -3.09099  eV     1   --> B_1  D_3  S_3  
     e( 94 - 94) =     -3.09048  eV     1   --> B_1  D_3  S_3  
     e( 95 - 96) =     -3.06883  eV     2   --> A_1  D_1  S_1  
     e( 95 - 96) =     -3.06883  eV     2   --> B_1  D_3  S_3  
     e( 97 - 97) =     -2.98953  eV     1   --> B_2  D_4  S_4  
     e( 98 - 98) =     -2.91215  eV     1   --> A_2  D_2  S_2  
     e( 99 - 99) =     -2.91195  eV     1   --> A_2  D_2  S_2  
     e(100 -101) =     -2.90321  eV     2   --> A_2  D_2  S_2  
     e(100 -101) =     -2.90321  eV     2   --> B_2  D_4  S_4  
     e(102 -102) =     -2.90277  eV     1   --> B_2  D_4  S_4  
     e(103 -103) =     -2.90266  eV     1   --> A_2  D_2  S_2  
     e(104 -104) =     -2.41413  eV     1   --> B_2  D_4  S_4  
     e(105 -105) =     -2.41402  eV     1   --> B_2  D_4  S_4  
     e(106 -107) =     -2.40382  eV     2   --> A_2  D_2  S_2  
     e(106 -107) =     -2.40382  eV     2   --> B_2  D_4  S_4  
     e(108 -108) =     -2.35421  eV     1   --> B_1  D_3  S_3  
     e(109 -109) =     -1.73467  eV     1   --> A_1  D_1  S_1  
     e(110 -111) =     -1.62197  eV     2   --> A_1  D_1  S_1  
     e(110 -111) =     -1.62197  eV     2   --> B_1  D_3  S_3  
     e(112 -112) =     -1.44344  eV     1   --> B_1  D_3  S_3  
     e(113 -113) =     -1.44319  eV     1   --> A_1  D_1  S_1  
     e(114 -114) =     -1.44303  eV     1   --> A_1  D_1  S_1  
     e(115 -115) =     -1.44283  eV     1   --> B_1  D_3  S_3  
     e(116 -116) =     -1.20622  eV     1   --> A_1  D_1  S_1  
     e(117 -117) =     -1.20576  eV     1   --> A_1  D_1  S_1  
     e(118 -119) =      0.69867  eV     2   --> A_1  D_1  S_1  
     e(118 -119) =      0.69867  eV     2   --> B_1  D_3  S_3  
     e(120 -120) =      0.94260  eV     1   --> A_1  D_1  S_1  
     e(121 -121) =      0.94287  eV     1   --> A_1  D_1  S_1  
     e(122 -124) =      0.96221  eV     3   --> A_1  D_1  S_1  
     e(122 -124) =      0.96221  eV     3   -->   2 B_1  D_3  S_3  
     e(125 -125) =      0.96269  eV     1   --> A_1  D_1  S_1  
     e(126 -126) =      1.03449  eV     1   --> B_1  D_3  S_3  
     e(127 -127) =      1.13231  eV     1   --> B_2  D_4  S_4  
     e(128 -128) =      1.13293  eV     1   --> B_2  D_4  S_4  
     e(129 -130) =      1.18859  eV     2   --> A_1  D_1  S_1  
     e(129 -130) =      1.18859  eV     2   --> B_1  D_3  S_3  
     e(131 -131) =      1.22855  eV     1   --> B_1  D_3  S_3  
     e(132 -132) =      1.22910  eV     1   --> B_1  D_3  S_3  
     e(133 -134) =      1.25965  eV     2   --> A_2  D_2  S_2  
     e(133 -134) =      1.25965  eV     2   --> B_2  D_4  S_4  
     e(135 -135) =      1.42132  eV     1   --> A_1  D_1  S_1  
     e(136 -136) =      1.43535  eV     1   --> B_1  D_3  S_3  
     e(137 -137) =      1.43570  eV     1   --> A_1  D_1  S_1  
     e(138 -138) =      1.43605  eV     1   --> A_1  D_1  S_1  
     e(139 -139) =      1.43640  eV     1   --> B_1  D_3  S_3  
     e(140 -140) =      1.91254  eV     1   --> A_2  D_2  S_2  
     e(141 -141) =      1.91284  eV     1   --> A_2  D_2  S_2  
     e(142 -142) =      1.94565  eV     1   --> A_2  D_2  S_2  
     e(143 -143) =      1.94578  eV     1   --> B_2  D_4  S_4  
     e(144 -144) =      1.94623  eV     1   --> B_2  D_4  S_4  
     e(145 -145) =      1.94644  eV     1   --> A_2  D_2  S_2  
     e(146 -146) =      2.23440  eV     1   --> B_2  D_4  S_4  
     e(147 -148) =      2.61984  eV     2   --> A_2  D_2  S_2  
     e(147 -148) =      2.61984  eV     2   --> B_2  D_4  S_4  
     e(149 -149) =      2.77079  eV     1   --> B_2  D_4  S_4  
     e(150 -150) =      2.77104  eV     1   --> A_2  D_2  S_2  
     e(151 -151) =      2.77126  eV     1   --> A_2  D_2  S_2  
     e(152 -152) =      2.77159  eV     1   --> B_2  D_4  S_4  
     e(153 -153) =      2.82249  eV     1   --> A_2  D_2  S_2  
     e(154 -155) =      3.67995  eV     2   -->   2 A_1  D_1  S_1  
     e(156 -157) =      3.90802  eV     2   -->   2 B_2  D_4  S_4  
     e(158 -158) =      3.98346  eV     1   --> A_1  D_1  S_1  
     e(159 -160) =      4.15616  eV     2   -->   2 A_1  D_1  S_1  
     e(161 -162) =      4.55441  eV     2   --> A_1  D_1  S_1  
     e(161 -162) =      4.55441  eV     2   --> B_1  D_3  S_3  
     e(163 -164) =      4.77278  eV     2   --> A_2  D_2  S_2  
     e(163 -164) =      4.77278  eV     2   --> B_2  D_4  S_4  
     e(165 -165) =      4.80632  eV     1   --> A_1  D_1  S_1  
     e(166 -166) =      4.80644  eV     1   --> B_1  D_3  S_3  
     e(167 -167) =      4.80660  eV     1   --> B_1  D_3  S_3  
     e(168 -168) =      4.80677  eV     1   --> A_1  D_1  S_1  
     e(169 -169) =      4.98287  eV     1   --> A_1  D_1  S_1  
     e(170 -170) =      4.98310  eV     1   --> A_1  D_1  S_1  
     e(171 -172) =      5.02334  eV     2   -->   2 B_2  D_4  S_4  
     e(173 -174) =      5.07397  eV     2   --> A_1  D_1  S_1  
     e(173 -174) =      5.07397  eV     2   --> B_1  D_3  S_3  
     e(175 -175) =      5.63597  eV     1   --> A_1  D_1  S_1  
     e(176 -176) =      5.85552  eV     1   --> B_2  D_4  S_4  
     e(177 -178) =      5.85711  eV     2   --> A_2  D_2  S_2  
     e(177 -178) =      5.85711  eV     2   --> B_2  D_4  S_4  
     e(179 -179) =      5.98902  eV     1   --> A_1  D_1  S_1  
     e(180 -180) =      5.98914  eV     1   --> A_1  D_1  S_1  
     e(181 -184) =      6.03472  eV     4   -->   2 A_1  D_1  S_1  
     e(181 -184) =      6.03472  eV     4   -->   2 B_1  D_3  S_3  
     e(185 -186) =      6.20632  eV     2   --> A_1  D_1  S_1  
     e(185 -186) =      6.20632  eV     2   --> B_1  D_3  S_3  
     e(187 -189) =      6.22868  eV     3   -->   ?

 **************************************************************************

 **************************************************************************

                    xk=(   0.00000,   0.54848,   0.00000  )

     Band symmetry, C_2v (mm2)  point group:

     e(  1 -  1) =    -56.69342  eV     1   --> A_1  D_1  S_1  
     e(  2 -  2) =    -56.69205  eV     1   --> A_1  D_1  S_1  
     e(  3 -  4) =    -56.68554  eV     2   --> A_1  D_1  S_1  
     e(  3 -  4) =    -56.68554  eV     2   --> B_1  D_3  S_3  
     e(  5 -  5) =    -56.67978  eV     1   --> A_1  D_1  S_1  
     e(  6 -  6) =    -56.67930  eV     1   --> A_1  D_1  S_1  
     e(  7 -  7) =    -56.67872  eV     1   --> B_1  D_3  S_3  
     e(  8 -  8) =    -56.67819  eV     1   --> B_1  D_3  S_3  
     e(  9 -  9) =    -56.67569  eV     1   --> A_1  D_1  S_1  
     e( 10 - 10) =    -32.88663  eV     1   --> A_1  D_1  S_1  
     e( 11 - 11) =    -32.85717  eV     1   --> B_1  D_3  S_3  
     e( 12 - 12) =    -32.85698  eV     1   --> A_1  D_1  S_1  
     e( 13 - 13) =    -32.85557  eV     1   --> A_1  D_1  S_1  
     e( 14 - 14) =    -32.85538  eV     1   --> B_1  D_3  S_3  
     e( 15 - 15) =    -32.78825  eV     1   --> A_1  D_1  S_1  
     e( 16 - 16) =    -32.78812  eV     1   --> B_1  D_3  S_3  
     e( 17 - 17) =    -32.73972  eV     1   --> B_2  D_4  S_4  
     e( 18 - 19) =    -32.73737  eV     2   --> A_1  D_1  S_1  
     e( 18 - 19) =    -32.73737  eV     2   --> B_1  D_3  S_3  
     e( 20 - 20) =    -32.73693  eV     1   --> B_2  D_4  S_4  
     e( 21 - 22) =    -32.73035  eV     2   --> A_1  D_1  S_1  
     e( 21 - 22) =    -32.73035  eV     2   --> B_1  D_3  S_3  
     e( 23 - 24) =    -32.71903  eV     2   --> A_2  D_2  S_2  
     e( 23 - 24) =    -32.71903  eV     2   --> B_2  D_4  S_4  
     e( 25 - 25) =    -32.71585  eV     1   --> A_1  D_1  S_1  
     e( 26 - 26) =    -32.70704  eV     1   --> B_1  D_3  S_3  
     e( 27 - 27) =    -32.70490  eV     1   --> A_1  D_1  S_1  
     e( 28 - 28) =    -32.70127  eV     1   --> B_2  D_4  S_4  
     e( 29 - 30) =    -32.70051  eV     2   --> A_2  D_2  S_2  
     e( 29 - 30) =    -32.70051  eV     2   --> B_2  D_4  S_4  
     e( 31 - 31) =    -32.69875  eV     1   --> A_2  D_2  S_2  
     e( 32 - 32) =    -32.69722  eV     1   --> B_2  D_4  S_4  
     e( 33 - 33) =    -32.69362  eV     1   --> B_1  D_3  S_3  
     e( 34 - 34) =    -32.69330  eV     1   --> A_1  D_1  S_1  
     e( 35 - 35) =    -32.66493  eV     1   --> B_1  D_3  S_3  
     e( 36 - 36) =    -32.66183  eV     1   --> B_1  D_3  S_3  
     e( 37 - 37) =    -14.86490  eV     1   --> A_1  D_1  S_1  
     e( 38 - 38) =    -14.81079  eV     1   --> A_1  D_1  S_1  
     e( 39 - 40) =    -14.36196  eV     2   --> A_1  D_1  S_1  
     e( 39 - 40) =    -14.36196  eV     2   --> B_1  D_3  S_3  
     e( 41 - 41) =    -14.05597  eV     1   --> B_2  D_4  S_4  
     e( 42 - 42) =    -14.03122  eV     1   --> B_2  D_4  S_4  
     e( 43 - 44) =    -13.83066  eV     2   --> A_1  D_1  S_1  
     e( 43 - 44) =    -13.83066  eV     2   --> B_1  D_3  S_3  
     e( 45 - 46) =    -13.82590  eV     2   --> A_2  D_2  S_2  
     e( 45 - 46) =    -13.82590  eV     2   --> B_2  D_4  S_4  
     e( 47 - 47) =    -13.80215  eV     1   --> A_1  D_1  S_1  
     e( 48 - 49) =    -13.79596  eV     2   --> A_1  D_1  S_1  
     e( 48 - 49) =    -13.79596  eV     2   --> B_1  D_3  S_3  
     e( 50 - 51) =    -13.58385  eV     2   --> A_2  D_2  S_2  
     e( 50 - 51) =    -13.58385  eV     2   --> B_2  D_4  S_4  
     e( 52 - 52) =    -13.58025  eV     1   --> B_2  D_4  S_4  
     e( 53 - 54) =    -13.56681  eV     2   --> A_2  D_2  S_2  
     e( 53 - 54) =    -13.56681  eV     2   --> B_2  D_4  S_4  
     e( 55 - 55) =     -6.51423  eV     1   --> A_1  D_1  S_1  
     e( 56 - 57) =     -6.08150  eV     2   --> A_1  D_1  S_1  
     e( 56 - 57) =     -6.08150  eV     2   --> B_1  D_3  S_3  
     e( 58 - 59) =     -6.05440  eV     2   --> A_1  D_1  S_1  
     e( 58 - 59) =     -6.05440  eV     2   --> B_1  D_3  S_3  
     e( 60 - 60) =     -6.03645  eV     1   --> A_1  D_1  S_1  
     e( 61 - 61) =     -5.96987  eV     1   --> A_1  D_1  S_1  
     e( 62 - 62) =     -5.59313  eV     1   --> B_2  D_4  S_4  
     e( 63 - 64) =     -5.57001  eV     2   --> A_2  D_2  S_2  
     e( 63 - 64) =     -5.57001  eV     2   --> B_2  D_4  S_4  
     e( 65 - 66) =     -5.56719  eV     2   --> A_1  D_1  S_1  
     e( 65 - 66) =     -5.56719  eV     2   --> B_1  D_3  S_3  
     e( 67 - 68) =     -5.51366  eV     2   --> A_2  D_2  S_2  
     e( 67 - 68) =     -5.51366  eV     2   --> B_2  D_4  S_4  
     e( 69 - 70) =     -5.05229  eV     2   --> A_1  D_1  S_1  
     e( 69 - 70) =     -5.05229  eV     2   --> B_1  D_3  S_3  
     e( 71 - 71) =     -4.91491  eV     1   --> A_1  D_1  S_1  
     e( 72 - 73) =     -4.85443  eV     2   --> A_1  D_1  S_1  
     e( 72 - 73) =     -4.85443  eV     2   --> B_1  D_3  S_3  
     e( 74 - 75) =     -4.83393  eV     2   --> A_1  D_1  S_1  
     e( 74 - 75) =     -4.83393  eV     2   --> B_1  D_3  S_3  
     e( 76 - 77) =     -4.48738  eV     2   --> A_2  D_2  S_2  
     e( 76 - 77) =     -4.48738  eV     2   --> B_2  D_4  S_4  
     e( 78 - 78) =     -4.32798  eV     1   --> A_1  D_1  S_1  
     e( 79 - 79) =     -4.18696  eV     1   --> A_1  D_1  S_1  
     e( 80 - 81) =     -4.09557  eV     2   --> A_2  D_2  S_2  
     e( 80 - 81) =     -4.09557  eV     2   --> B_2  D_4  S_4  
     e( 82 - 83) =     -4.08076  eV     2   --> A_2  D_2  S_2  
     e( 82 - 83) =     -4.08076  eV     2   --> B_2  D_4  S_4  
     e( 84 - 85) =     -3.94493  eV     2   --> A_2  D_2  S_2  
     e( 84 - 85) =     -3.94493  eV     2   --> B_2  D_4  S_4  
     e( 86 - 86) =     -3.91930  eV     1   --> A_2  D_2  S_2  
     e( 87 - 87) =     -3.80439  eV     1   --> B_2  D_4  S_4  
     e( 88 - 88) =     -3.68767  eV     1   --> B_2  D_4  S_4  
     e( 89 - 90) =     -3.63610  eV     2   --> A_1  D_1  S_1  
     e( 89 - 90) =     -3.63610  eV     2   --> B_1  D_3  S_3  
     e( 91 - 92) =     -3.47361  eV     2   --> A_1  D_1  S_1  
     e( 91 - 92) =     -3.47361  eV     2   --> B_1  D_3  S_3  
     e( 93 - 93) =     -3.11371  eV     1   --> B_1  D_3  S_3  
     e( 94 - 95) =     -3.06618  eV     2   --> A_1  D_1  S_1  
     e( 94 - 95) =     -3.06618  eV     2   --> B_1  D_3  S_3  
     e( 96 - 96) =     -3.06481  eV     1   -->   ?
     e( 97 - 97) =     -2.98971  eV     1   --> B_2  D_4  S_4  
     e( 98 - 98) =     -2.95191  eV     1   -->   ?
     e( 99 -100) =     -2.91798  eV     2   --> A_2  D_2  S_2  
     e( 99 -100) =     -2.91798  eV     2   --> B_2  D_4  S_4  
     e(101 -102) =     -2.88880  eV     2   --> A_2  D_2  S_2  
     e(101 -102) =     -2.88880  eV     2   --> B_2  D_4  S_4  
     e(103 -103) =     -2.87320  eV     1   --> A_2  D_2  S_2  
     e(104 -104) =     -2.43392  eV     1   --> B_2  D_4  S_4  
     e(105 -106) =     -2.40606  eV     2   --> A_2  D_2  S_2  
     e(105 -106) =     -2.40606  eV     2   --> B_2  D_4  S_4  
     e(107 -107) =     -2.39616  eV     1   --> B_2  D_4  S_4  
     e(108 -108) =     -2.35493  eV     1   --> B_1  D_3  S_3  
     e(109 -109) =     -1.73641  eV     1   --> A_1  D_1  S_1  
     e(110 -111) =     -1.61969  eV     2   --> A_1  D_1  S_1  
     e(110 -111) =     -1.61969  eV     2   --> B_1  D_3  S_3  
     e(112 -113) =     -1.47033  eV     2   --> A_1  D_1  S_1  
     e(112 -113) =     -1.47033  eV     2   --> B_1  D_3  S_3  
     e(114 -115) =     -1.41472  eV     2   --> A_1  D_1  S_1  
     e(114 -115) =     -1.41472  eV     2   --> B_1  D_3  S_3  
     e(116 -116) =     -1.24054  eV     1   --> A_1  D_1  S_1  
     e(117 -117) =     -1.17281  eV     1   --> A_1  D_1  S_1  
     e(118 -119) =      0.70251  eV     2   --> A_1  D_1  S_1  
     e(118 -119) =      0.70251  eV     2   --> B_1  D_3  S_3  
     e(120 -120) =      0.92779  eV     1   --> A_1  D_1  S_1  
     e(121 -121) =      0.94668  eV     1   --> B_1  D_3  S_3  
     e(122 -122) =      0.94679  eV     1   --> A_1  D_1  S_1  
     e(123 -123) =      0.96448  eV     1   --> A_1  D_1  S_1  
     e(124 -124) =      0.97440  eV     1   --> B_1  D_3  S_3  
     e(125 -125) =      0.97452  eV     1   --> A_1  D_1  S_1  
     e(126 -126) =      1.02950  eV     1   --> B_1  D_3  S_3  
     e(127 -127) =      1.12397  eV     1   --> B_2  D_4  S_4  
     e(128 -128) =      1.14259  eV     1   --> B_2  D_4  S_4  
     e(129 -130) =      1.18913  eV     2   --> A_1  D_1  S_1  
     e(129 -130) =      1.18913  eV     2   --> B_1  D_3  S_3  
     e(131 -131) =      1.20666  eV     1   --> B_1  D_3  S_3  
     e(132 -132) =      1.25355  eV     1   --> B_1  D_3  S_3  
     e(133 -134) =      1.26263  eV     2   --> A_2  D_2  S_2  
     e(133 -134) =      1.26263  eV     2   --> B_2  D_4  S_4  
     e(135 -136) =      1.40486  eV     2   --> A_1  D_1  S_1  
     e(135 -136) =      1.40486  eV     2   --> B_1  D_3  S_3  
     e(137 -137) =      1.41744  eV     1   --> A_1  D_1  S_1  
     e(138 -139) =      1.47320  eV     2   --> A_1  D_1  S_1  
     e(138 -139) =      1.47320  eV     2   --> B_1  D_3  S_3  
     e(140 -140) =      1.87124  eV     1   --> A_2  D_2  S_2  
     e(141 -142) =      1.94612  eV     2   --> A_2  D_2  S_2  
     e(141 -142) =      1.94612  eV     2   --> B_2  D_4  S_4  
     e(143 -143) =      1.94720  eV     1   --> B_2  D_4  S_4  
     e(144 -144) =      1.94733  eV     1   --> A_2  D_2  S_2  
     e(145 -145) =      1.95319  eV     1   --> A_2  D_2  S_2  
     e(146 -146) =      2.23115  eV     1   --> B_2  D_4  S_4  
     e(147 -148) =      2.61993  eV     2   --> A_2  D_2  S_2  
     e(147 -148) =      2.61993  eV     2   --> B_2  D_4  S_4  
     e(149 -150) =      2.76025  eV     2   --> A_2  D_2  S_2  
     e(149 -150) =      2.76025  eV     2   --> B_2  D_4  S_4  
     e(151 -152) =      2.78490  eV     2   --> A_2  D_2  S_2  
     e(151 -152) =      2.78490  eV     2   --> B_2  D_4  S_4  
     e(153 -153) =      2.82068  eV     1   --> A_2  D_2  S_2  
     e(154 -154) =      3.63332  eV     1   --> A_1  D_1  S_1  
     e(155 -155) =      3.72769  eV     1   --> A_1  D_1  S_1  
     e(156 -156) =      3.86425  eV     1   --> B_2  D_4  S_4  
     e(157 -157) =      3.95384  eV     1   --> B_2  D_4  S_4  
     e(158 -158) =      3.98791  eV     1   --> A_1  D_1  S_1  
     e(159 -159) =      4.10569  eV     1   --> A_1  D_1  S_1  
     e(160 -160) =      4.20727  eV     1   --> A_1  D_1  S_1  
     e(161 -162) =      4.55504  eV     2   --> A_1  D_1  S_1  
     e(161 -162) =      4.55504  eV     2   --> B_1  D_3  S_3  
     e(163 -164) =      4.77373  eV     2   --> A_2  D_2  S_2  
     e(163 -164) =      4.77373  eV     2   --> B_2  D_4  S_4  
     e(165 -166) =      4.80165  eV     2   --> A_1  D_1  S_1  
     e(165 -166) =      4.80165  eV     2   --> B_1  D_3  S_3  
     e(167 -168) =      4.81316  eV     2   --> A_1  D_1  S_1  
     e(167 -168) =      4.81316  eV     2   --> B_1  D_3  S_3  
     e(169 -169) =      4.89793  eV     1   --> A_1  D_1  S_1  
     e(170 -170) =      4.98065  eV     1   --> B_2  D_4  S_4  
     e(171 -171) =      5.06785  eV     1   -->   ?
     e(172 -172) =      5.06800  eV     1   -->   ?
     e(173 -174) =      5.07466  eV     2   --> A_1  D_1  S_1  
     e(173 -174) =      5.07466  eV     2   --> B_1  D_3  S_3  
     e(175 -175) =      5.63277  eV     1   --> A_1  D_1  S_1  
     e(176 -176) =      5.85425  eV     1   --> B_2  D_4  S_4  
     e(177 -178) =      5.85794  eV     2   --> A_2  D_2  S_2  
     e(177 -178) =      5.85794  eV     2   --> B_2  D_4  S_4  
     e(179 -179) =      5.93555  eV     1   --> A_1  D_1  S_1  
     e(180 -181) =      5.96693  eV     2   --> A_1  D_1  S_1  
     e(180 -181) =      5.96693  eV     2   --> B_1  D_3  S_3  
     e(182 -182) =      6.04573  eV     1   --> A_1  D_1  S_1  
     e(183 -184) =      6.09757  eV     2   --> A_1  D_1  S_1  
     e(183 -184) =      6.09757  eV     2   --> B_1  D_3  S_3  
     e(185 -186) =      6.16062  eV     2   --> A_2  D_2  S_2  
     e(185 -186) =      6.16062  eV     2   --> B_2  D_4  S_4  
     e(187 -188) =      6.20462  eV     2   --> A_1  D_1  S_1  
     e(187 -188) =      6.20462  eV     2   --> B_1  D_3  S_3  
     e(189 -189) =      6.29721  eV     1   -->   ?

 **************************************************************************

 **************************************************************************

                    xk=(   0.00000,   0.51962,   0.00000  )

     Band symmetry, C_2v (mm2)  point group:

     e(  1 -  1) =    -56.69377  eV     1   --> A_1  D_1  S_1  
     e(  2 -  2) =    -56.69184  eV     1   --> A_1  D_1  S_1  
     e(  3 -  4) =    -56.68558  eV     2   --> A_1  D_1  S_1  
     e(  3 -  4) =    -56.68558  eV     2   --> B_1  D_3  S_3  
     e(  5 -  5) =    -56.67984  eV     1   --> A_1  D_1  S_1  
     e(  6 -  6) =    -56.67922  eV     1   --> A_1  D_1  S_1  
     e(  7 -  7) =    -56.67896  eV     1   --> B_1  D_3  S_3  
     e(  8 -  8) =    -56.67788  eV     1   --> B_1  D_3  S_3  
     e(  9 -  9) =    -56.67562  eV     1   --> A_1  D_1  S_1  
     e( 10 - 10) =    -32.88565  eV     1   --> A_1  D_1  S_1  
     e( 11 - 11) =    -32.85701  eV     1   --> B_1  D_3  S_3  
     e( 12 - 12) =    -32.85687  eV     1   --> A_1  D_1  S_1  
     e( 13 - 13) =    -32.85475  eV     1   --> A_1  D_1  S_1  
     e( 14 - 14) =    -32.85462  eV     1   --> B_1  D_3  S_3  
     e( 15 - 15) =    -32.78858  eV     1   --> A_1  D_1  S_1  
     e( 16 - 16) =    -32.78845  eV     1   --> B_1  D_3  S_3  
     e( 17 - 17) =    -32.74079  eV     1   --> B_2  D_4  S_4  
     e( 18 - 19) =    -32.74058  eV     2   --> A_1  D_1  S_1  
     e( 18 - 19) =    -32.74058  eV     2   --> B_1  D_3  S_3  
     e( 20 - 20) =    -32.73610  eV     1   --> B_2  D_4  S_4  
     e( 21 - 22) =    -32.72709  eV     2   --> A_1  D_1  S_1  
     e( 21 - 22) =    -32.72709  eV     2   --> B_1  D_3  S_3  
     e( 23 - 23) =    -32.72201  eV     1   --> A_1  D_1  S_1  
     e( 24 - 25) =    -32.71925  eV     2   --> A_2  D_2  S_2  
     e( 24 - 25) =    -32.71925  eV     2   --> B_2  D_4  S_4  
     e( 26 - 26) =    -32.70673  eV     1   --> B_1  D_3  S_3  
     e( 27 - 27) =    -32.70172  eV     1   --> B_2  D_4  S_4  
     e( 28 - 28) =    -32.70121  eV     1   --> A_2  D_2  S_2  
     e( 29 - 30) =    -32.70038  eV     2   --> A_1  D_1  S_1  
     e( 29 - 30) =    -32.70038  eV     2   --> B_2  D_4  S_4  
     e( 31 - 31) =    -32.69783  eV     1   --> A_2  D_2  S_2  
     e( 32 - 32) =    -32.69670  eV     1   --> B_2  D_4  S_4  
     e( 33 - 33) =    -32.69408  eV     1   --> B_1  D_3  S_3  
     e( 34 - 34) =    -32.69370  eV     1   --> A_1  D_1  S_1  
     e( 35 - 35) =    -32.66668  eV     1   --> B_1  D_3  S_3  
     e( 36 - 36) =    -32.66082  eV     1   --> B_1  D_3  S_3  
     e( 37 - 37) =    -14.89043  eV     1   --> A_1  D_1  S_1  
     e( 38 - 38) =    -14.78226  eV     1   --> A_1  D_1  S_1  
     e( 39 - 40) =    -14.36051  eV     2   --> A_1  D_1  S_1  
     e( 39 - 40) =    -14.36051  eV     2   --> B_1  D_3  S_3  
     e( 41 - 41) =    -14.06764  eV     1   --> B_2  D_4  S_4  
     e( 42 - 42) =    -14.01831  eV     1   --> B_2  D_4  S_4  
     e( 43 - 44) =    -13.84866  eV     2   --> A_1  D_1  S_1  
     e( 43 - 44) =    -13.84866  eV     2   --> B_1  D_3  S_3  
     e( 45 - 46) =    -13.82531  eV     2   --> A_2  D_2  S_2  
     e( 45 - 46) =    -13.82531  eV     2   --> B_2  D_4  S_4  
     e( 47 - 47) =    -13.80546  eV     1   --> A_1  D_1  S_1  
     e( 48 - 49) =    -13.77939  eV     2   --> A_1  D_1  S_1  
     e( 48 - 49) =    -13.77939  eV     2   --> B_1  D_3  S_3  
     e( 50 - 51) =    -13.59260  eV     2   --> A_2  D_2  S_2  
     e( 50 - 51) =    -13.59260  eV     2   --> B_2  D_4  S_4  
     e( 52 - 52) =    -13.58169  eV     1   --> B_2  D_4  S_4  
     e( 53 - 54) =    -13.55863  eV     2   --> A_2  D_2  S_2  
     e( 53 - 54) =    -13.55863  eV     2   --> B_2  D_4  S_4  
     e( 55 - 55) =     -6.50868  eV     1   --> A_1  D_1  S_1  
     e( 56 - 57) =     -6.09134  eV     2   --> A_1  D_1  S_1  
     e( 56 - 57) =     -6.09134  eV     2   --> B_1  D_3  S_3  
     e( 58 - 58) =     -6.06863  eV     1   --> A_1  D_1  S_1  
     e( 59 - 60) =     -6.03687  eV     2   --> A_1  D_1  S_1  
     e( 59 - 60) =     -6.03687  eV     2   --> B_1  D_3  S_3  
     e( 61 - 61) =     -5.93622  eV     1   --> A_1  D_1  S_1  
     e( 62 - 63) =     -5.59746  eV     2   --> A_2  D_2  S_2  
     e( 62 - 63) =     -5.59746  eV     2   --> B_2  D_4  S_4  
     e( 64 - 64) =     -5.58789  eV     1   --> B_2  D_4  S_4  
     e( 65 - 66) =     -5.57050  eV     2   --> A_1  D_1  S_1  
     e( 65 - 66) =     -5.57050  eV     2   --> B_1  D_3  S_3  
     e( 67 - 68) =     -5.48503  eV     2   --> A_2  D_2  S_2  
     e( 67 - 68) =     -5.48503  eV     2   --> B_2  D_4  S_4  
     e( 69 - 70) =     -5.05380  eV     2   --> A_1  D_1  S_1  
     e( 69 - 70) =     -5.05380  eV     2   --> B_1  D_3  S_3  
     e( 71 - 71) =     -4.91540  eV     1   --> A_1  D_1  S_1  
     e( 72 - 73) =     -4.86528  eV     2   --> A_1  D_1  S_1  
     e( 72 - 73) =     -4.86528  eV     2   --> B_1  D_3  S_3  
     e( 74 - 75) =     -4.82421  eV     2   --> A_1  D_1  S_1  
     e( 74 - 75) =     -4.82421  eV     2   --> B_1  D_3  S_3  
     e( 76 - 77) =     -4.49697  eV     2   --> A_2  D_2  S_2  
     e( 76 - 77) =     -4.49697  eV     2   --> B_2  D_4  S_4  
     e( 78 - 78) =     -4.39998  eV     1   --> A_1  D_1  S_1  
     e( 79 - 79) =     -4.11808  eV     1   --> A_1  D_1  S_1  
     e( 80 - 81) =     -4.09968  eV     2   --> A_2  D_2  S_2  
     e( 80 - 81) =     -4.09968  eV     2   --> B_2  D_4  S_4  
     e( 82 - 83) =     -4.06979  eV     2   --> A_2  D_2  S_2  
     e( 82 - 83) =     -4.06979  eV     2   --> B_2  D_4  S_4  
     e( 84 - 85) =     -3.93541  eV     2   --> A_2  D_2  S_2  
     e( 84 - 85) =     -3.93541  eV     2   --> B_2  D_4  S_4  
     e( 86 - 86) =     -3.91683  eV     1   --> A_2  D_2  S_2  
     e( 87 - 87) =     -3.86513  eV     1   --> B_2  D_4  S_4  
     e( 88 - 89) =     -3.71807  eV     2   --> A_1  D_1  S_1  
     e( 88 - 89) =     -3.71807  eV     2   --> B_1  D_3  S_3  
     e( 90 - 90) =     -3.63132  eV     1   --> B_2  D_4  S_4  
     e( 91 - 92) =     -3.39389  eV     2   --> A_1  D_1  S_1  
     e( 91 - 92) =     -3.39389  eV     2   --> B_1  D_3  S_3  
     e( 93 - 93) =     -3.13773  eV     1   --> B_1  D_3  S_3  
     e( 94 - 95) =     -3.05943  eV     2   --> A_1  D_1  S_1  
     e( 94 - 95) =     -3.05943  eV     2   --> B_1  D_3  S_3  
     e( 96 - 96) =     -3.03978  eV     1   -->   ?
     e( 97 - 97) =     -2.99160  eV     1   -->   ?
     e( 98 - 98) =     -2.98857  eV     1   --> B_2  D_4  S_4  
     e( 99 -100) =     -2.93447  eV     2   --> A_2  D_2  S_2  
     e( 99 -100) =     -2.93447  eV     2   --> B_2  D_4  S_4  
     e(101 -102) =     -2.87620  eV     2   --> A_2  D_2  S_2  
     e(101 -102) =     -2.87620  eV     2   --> B_2  D_4  S_4  
     e(103 -103) =     -2.83480  eV     1   --> A_2  D_2  S_2  
     e(104 -104) =     -2.45527  eV     1   --> B_2  D_4  S_4  
     e(105 -106) =     -2.41301  eV     2   --> A_2  D_2  S_2  
     e(105 -106) =     -2.41301  eV     2   --> B_2  D_4  S_4  
     e(107 -107) =     -2.38005  eV     1   --> B_2  D_4  S_4  
     e(108 -108) =     -2.35639  eV     1   --> B_1  D_3  S_3  
     e(109 -109) =     -1.73955  eV     1   --> A_1  D_1  S_1  
     e(110 -111) =     -1.62343  eV     2   --> A_1  D_1  S_1  
     e(110 -111) =     -1.62343  eV     2   --> B_1  D_3  S_3  
     e(112 -113) =     -1.49736  eV     2   --> A_1  D_1  S_1  
     e(112 -113) =     -1.49736  eV     2   --> B_1  D_3  S_3  
     e(114 -115) =     -1.38554  eV     2   --> A_1  D_1  S_1  
     e(114 -115) =     -1.38554  eV     2   --> B_1  D_3  S_3  
     e(116 -116) =     -1.27942  eV     1   --> A_1  D_1  S_1  
     e(117 -117) =     -1.14160  eV     1   --> A_1  D_1  S_1  
     e(118 -119) =      0.70485  eV     2   --> A_1  D_1  S_1  
     e(118 -119) =      0.70485  eV     2   --> B_1  D_3  S_3  
     e(120 -120) =      0.91276  eV     1   --> A_1  D_1  S_1  
     e(121 -121) =      0.92827  eV     1   --> B_1  D_3  S_3  
     e(122 -122) =      0.92838  eV     1   --> A_1  D_1  S_1  
     e(123 -124) =      0.98234  eV     2   --> A_1  D_1  S_1  
     e(123 -124) =      0.98234  eV     2   --> B_1  D_3  S_3  
     e(125 -125) =      0.98689  eV     1   --> A_1  D_1  S_1  
     e(126 -126) =      1.03045  eV     1   --> B_1  D_3  S_3  
     e(127 -127) =      1.11989  eV     1   --> B_2  D_4  S_4  
     e(128 -128) =      1.15472  eV     1   --> B_2  D_4  S_4  
     e(129 -129) =      1.18377  eV     1   --> B_1  D_3  S_3  
     e(130 -131) =      1.18780  eV     2   --> A_1  D_1  S_1  
     e(130 -131) =      1.18780  eV     2   --> B_1  D_3  S_3  
     e(132 -133) =      1.26822  eV     2   --> A_2  D_2  S_2  
     e(132 -133) =      1.26822  eV     2   --> B_2  D_4  S_4  
     e(134 -134) =      1.27510  eV     1   --> B_1  D_3  S_3  
     e(135 -136) =      1.37703  eV     2   --> A_1  D_1  S_1  
     e(135 -136) =      1.37703  eV     2   --> B_1  D_3  S_3  
     e(137 -137) =      1.41581  eV     1   --> A_1  D_1  S_1  
     e(138 -139) =      1.51298  eV     2   --> A_1  D_1  S_1  
     e(138 -139) =      1.51298  eV     2   --> B_1  D_3  S_3  
     e(140 -140) =      1.83020  eV     1   --> A_2  D_2  S_2  
     e(141 -141) =      1.94413  eV     1   --> A_2  D_2  S_2  
     e(142 -142) =      1.94426  eV     1   --> B_2  D_4  S_4  
     e(143 -143) =      1.94478  eV     1   --> B_2  D_4  S_4  
     e(144 -144) =      1.94497  eV     1   --> A_2  D_2  S_2  
     e(145 -145) =      1.99438  eV     1   --> A_2  D_2  S_2  
     e(146 -146) =      2.22875  eV     1   --> B_2  D_4  S_4  
     e(147 -148) =      2.61785  eV     2   --> A_2  D_2  S_2  
     e(147 -148) =      2.61785  eV     2   --> B_2  D_4  S_4  
     e(149 -150) =      2.75234  eV     2   --> A_2  D_2  S_2  
     e(149 -150) =      2.75234  eV     2   --> B_2  D_4  S_4  
     e(151 -152) =      2.79985  eV     2   --> A_2  D_2  S_2  
     e(151 -152) =      2.79985  eV     2   --> B_2  D_4  S_4  
     e(153 -153) =      2.82015  eV     1   --> A_2  D_2  S_2  
     e(154 -154) =      3.58725  eV     1   --> A_1  D_1  S_1  
     e(155 -155) =      3.77622  eV     1   --> A_1  D_1  S_1  
     e(156 -156) =      3.82246  eV     1   --> B_2  D_4  S_4  
     e(157 -157) =      4.00155  eV     1   --> B_2  D_4  S_4  
     e(158 -158) =      4.00221  eV     1   --> A_1  D_1  S_1  
     e(159 -159) =      4.05542  eV     1   --> A_1  D_1  S_1  
     e(160 -160) =      4.25886  eV     1   --> A_1  D_1  S_1  
     e(161 -162) =      4.55663  eV     2   --> A_1  D_1  S_1  
     e(161 -162) =      4.55663  eV     2   --> B_1  D_3  S_3  
     e(163 -164) =      4.77649  eV     2   --> A_2  D_2  S_2  
     e(163 -164) =      4.77649  eV     2   --> B_2  D_4  S_4  
     e(165 -166) =      4.79909  eV     2   --> A_1  D_1  S_1  
     e(165 -166) =      4.79909  eV     2   --> B_1  D_3  S_3  
     e(167 -167) =      4.81329  eV     1   --> A_1  D_1  S_1  
     e(168 -169) =      4.82150  eV     2   --> A_1  D_1  S_1  
     e(168 -169) =      4.82150  eV     2   --> B_1  D_3  S_3  
     e(170 -170) =      4.93981  eV     1   --> B_2  D_4  S_4  
     e(171 -172) =      5.07657  eV     2   --> A_1  D_1  S_1  
     e(171 -172) =      5.07657  eV     2   --> B_1  D_3  S_3  
     e(173 -173) =      5.11431  eV     1   --> B_2  D_4  S_4  
     e(174 -174) =      5.15106  eV     1   --> A_1  D_1  S_1  
     e(175 -175) =      5.62433  eV     1   --> A_1  D_1  S_1  
     e(176 -176) =      5.85128  eV     1   --> B_2  D_4  S_4  
     e(177 -178) =      5.86039  eV     2   --> A_2  D_2  S_2  
     e(177 -178) =      5.86039  eV     2   --> B_2  D_4  S_4  
     e(179 -179) =      5.88495  eV     1   --> A_1  D_1  S_1  
     e(180 -181) =      5.89649  eV     2   --> A_1  D_1  S_1  
     e(180 -181) =      5.89649  eV     2   --> B_1  D_3  S_3  
     e(182 -183) =      6.09279  eV     2   --> A_2  D_2  S_2  
     e(182 -183) =      6.09279  eV     2   --> B_2  D_4  S_4  
     e(184 -184) =      6.10455  eV     1   --> A_1  D_1  S_1  
     e(185 -186) =      6.15098  eV     2   --> A_1  D_1  S_1  
     e(185 -186) =      6.15098  eV     2   --> B_1  D_3  S_3  
     e(187 -188) =      6.19777  eV     2   --> A_1  D_1  S_1  
     e(187 -188) =      6.19777  eV     2   --> B_1  D_3  S_3  
     e(189 -189) =      6.36547  eV     1   -->   ?

 **************************************************************************

 **************************************************************************

                    xk=(   0.00000,   0.49075,   0.00000  )

     Band symmetry, C_2v (mm2)  point group:

     e(  1 -  1) =    -56.69407  eV     1   --> A_1  D_1  S_1  
     e(  2 -  2) =    -56.69137  eV     1   --> A_1  D_1  S_1  
     e(  3 -  4) =    -56.68558  eV     2   --> A_1  D_1  S_1  
     e(  3 -  4) =    -56.68558  eV     2   --> B_1  D_3  S_3  
     e(  5 -  5) =    -56.67996  eV     1   --> A_1  D_1  S_1  
     e(  6 -  7) =    -56.67920  eV     2   --> A_1  D_1  S_1  
     e(  6 -  7) =    -56.67920  eV     2   --> B_1  D_3  S_3  
     e(  8 -  8) =    -56.67774  eV     1   --> B_1  D_3  S_3  
     e(  9 -  9) =    -56.67560  eV     1   --> A_1  D_1  S_1  
     e( 10 - 10) =    -32.88459  eV     1   --> A_1  D_1  S_1  
     e( 11 - 11) =    -32.85663  eV     1   --> B_1  D_3  S_3  
     e( 12 - 12) =    -32.85650  eV     1   --> A_1  D_1  S_1  
     e( 13 - 13) =    -32.85429  eV     1   --> A_1  D_1  S_1  
     e( 14 - 14) =    -32.85417  eV     1   --> B_1  D_3  S_3  
     e( 15 - 15) =    -32.78943  eV     1   --> A_1  D_1  S_1  
     e( 16 - 16) =    -32.78930  eV     1   --> B_1  D_3  S_3  
     e( 17 - 18) =    -32.74463  eV     2   --> A_1  D_1  S_1  
     e( 17 - 18) =    -32.74463  eV     2   --> B_1  D_3  S_3  
     e( 19 - 19) =    -32.74203  eV     1   --> B_2  D_4  S_4  
     e( 20 - 20) =    -32.73471  eV     1   --> B_2  D_4  S_4  
     e( 21 - 21) =    -32.72710  eV     1   --> A_1  D_1  S_1  
     e( 22 - 23) =    -32.72397  eV     2   --> A_1  D_1  S_1  
     e( 22 - 23) =    -32.72397  eV     2   --> B_1  D_3  S_3  
     e( 24 - 25) =    -32.71940  eV     2   --> A_2  D_2  S_2  
     e( 24 - 25) =    -32.71940  eV     2   --> B_2  D_4  S_4  
     e( 26 - 26) =    -32.70645  eV     1   --> B_1  D_3  S_3  
     e( 27 - 27) =    -32.70221  eV     1   --> B_2  D_4  S_4  
     e( 28 - 28) =    -32.70189  eV     1   --> A_2  D_2  S_2  
     e( 29 - 29) =    -32.70017  eV     1   --> B_2  D_4  S_4  
     e( 30 - 30) =    -32.69729  eV     1   --> A_2  D_2  S_2  
     e( 31 - 31) =    -32.69631  eV     1   --> B_2  D_4  S_4  
     e( 32 - 32) =    -32.69559  eV     1   --> A_1  D_1  S_1  
     e( 33 - 33) =    -32.69384  eV     1   --> B_1  D_3  S_3  
     e( 34 - 34) =    -32.69313  eV     1   --> A_1  D_1  S_1  
     e( 35 - 35) =    -32.66770  eV     1   --> B_1  D_3  S_3  
     e( 36 - 36) =    -32.65928  eV     1   --> B_1  D_3  S_3  
     e( 37 - 37) =    -14.91484  eV     1   --> A_1  D_1  S_1  
     e( 38 - 38) =    -14.75279  eV     1   --> A_1  D_1  S_1  
     e( 39 - 40) =    -14.35811  eV     2   --> A_1  D_1  S_1  
     e( 39 - 40) =    -14.35811  eV     2   --> B_1  D_3  S_3  
     e( 41 - 41) =    -14.07877  eV     1   --> B_2  D_4  S_4  
     e( 42 - 42) =    -14.00486  eV     1   --> B_2  D_4  S_4  
     e( 43 - 44) =    -13.86703  eV     2   --> A_1  D_1  S_1  
     e( 43 - 44) =    -13.86703  eV     2   --> B_1  D_3  S_3  
     e( 45 - 46) =    -13.82429  eV     2   --> A_2  D_2  S_2  
     e( 45 - 46) =    -13.82429  eV     2   --> B_2  D_4  S_4  
     e( 47 - 47) =    -13.81105  eV     1   --> A_1  D_1  S_1  
     e( 48 - 49) =    -13.76346  eV     2   --> A_1  D_1  S_1  
     e( 48 - 49) =    -13.76346  eV     2   --> B_1  D_3  S_3  
     e( 50 - 51) =    -13.60149  eV     2   --> A_2  D_2  S_2  
     e( 50 - 51) =    -13.60149  eV     2   --> B_2  D_4  S_4  
     e( 52 - 52) =    -13.58404  eV     1   --> B_2  D_4  S_4  
     e( 53 - 54) =    -13.55075  eV     2   --> A_2  D_2  S_2  
     e( 53 - 54) =    -13.55075  eV     2   --> B_2  D_4  S_4  
     e( 55 - 55) =     -6.49973  eV     1   --> A_1  D_1  S_1  
     e( 56 - 56) =     -6.09983  eV     1   --> A_1  D_1  S_1  
     e( 57 - 58) =     -6.09861  eV     2   --> A_1  D_1  S_1  
     e( 57 - 58) =     -6.09861  eV     2   --> B_1  D_3  S_3  
     e( 59 - 60) =     -6.01712  eV     2   --> A_1  D_1  S_1  
     e( 59 - 60) =     -6.01712  eV     2   --> B_1  D_3  S_3  
     e( 61 - 61) =     -5.90209  eV     1   --> A_1  D_1  S_1  
     e( 62 - 63) =     -5.62468  eV     2   --> A_2  D_2  S_2  
     e( 62 - 63) =     -5.62468  eV     2   --> B_2  D_4  S_4  
     e( 64 - 64) =     -5.57923  eV     1   --> B_2  D_4  S_4  
     e( 65 - 66) =     -5.57566  eV     2   --> A_1  D_1  S_1  
     e( 65 - 66) =     -5.57566  eV     2   --> B_1  D_3  S_3  
     e( 67 - 68) =     -5.45621  eV     2   --> A_2  D_2  S_2  
     e( 67 - 68) =     -5.45621  eV     2   --> B_2  D_4  S_4  
     e( 69 - 70) =     -5.05616  eV     2   --> A_1  D_1  S_1  
     e( 69 - 70) =     -5.05616  eV     2   --> B_1  D_3  S_3  
     e( 71 - 71) =     -4.91631  eV     1   --> A_1  D_1  S_1  
     e( 72 - 73) =     -4.87652  eV     2   --> A_1  D_1  S_1  
     e( 72 - 73) =     -4.87652  eV     2   --> B_1  D_3  S_3  
     e( 74 - 75) =     -4.81571  eV     2   --> A_1  D_1  S_1  
     e( 74 - 75) =     -4.81571  eV     2   --> B_1  D_3  S_3  
     e( 76 - 77) =     -4.51134  eV     2   --> A_2  D_2  S_2  
     e( 76 - 77) =     -4.51134  eV     2   --> B_2  D_4  S_4  
     e( 78 - 78) =     -4.47042  eV     1   --> A_1  D_1  S_1  
     e( 79 - 80) =     -4.10252  eV     2   --> A_2  D_2  S_2  
     e( 79 - 80) =     -4.10252  eV     2   --> B_2  D_4  S_4  
     e( 81 - 82) =     -4.05645  eV     2   --> A_2  D_2  S_2  
     e( 81 - 82) =     -4.05645  eV     2   --> B_2  D_4  S_4  
     e( 83 - 83) =     -4.04891  eV     1   --> A_1  D_1  S_1  
     e( 84 - 84) =     -3.92543  eV     1   --> B_2  D_4  S_4  
     e( 85 - 86) =     -3.92055  eV     2   --> A_2  D_2  S_2  
     e( 85 - 86) =     -3.92055  eV     2   --> B_2  D_4  S_4  
     e( 87 - 87) =     -3.91277  eV     1   --> A_2  D_2  S_2  
     e( 88 - 89) =     -3.80059  eV     2   --> A_1  D_1  S_1  
     e( 88 - 89) =     -3.80059  eV     2   --> B_1  D_3  S_3  
     e( 90 - 90) =     -3.57587  eV     1   --> B_2  D_4  S_4  
     e( 91 - 92) =     -3.31560  eV     2   --> A_1  D_1  S_1  
     e( 91 - 92) =     -3.31560  eV     2   --> B_1  D_3  S_3  
     e( 93 - 93) =     -3.16069  eV     1   --> B_1  D_3  S_3  
     e( 94 - 95) =     -3.04813  eV     2   --> A_1  D_1  S_1  
     e( 94 - 95) =     -3.04813  eV     2   --> B_1  D_3  S_3  
     e( 96 - 96) =     -3.03086  eV     1   -->   ?
     e( 97 - 97) =     -3.01239  eV     1   -->   ?
     e( 98 - 98) =     -2.98651  eV     1   --> B_2  D_4  S_4  
     e( 99 -100) =     -2.95232  eV     2   --> A_2  D_2  S_2  
     e( 99 -100) =     -2.95232  eV     2   --> B_2  D_4  S_4  
     e(101 -102) =     -2.86493  eV     2   --> A_2  D_2  S_2  
     e(101 -102) =     -2.86493  eV     2   --> B_2  D_4  S_4  
     e(103 -103) =     -2.79691  eV     1   --> A_2  D_2  S_2  
     e(104 -104) =     -2.47775  eV     1   --> B_2  D_4  S_4  
     e(105 -106) =     -2.42430  eV     2   --> A_2  D_2  S_2  
     e(105 -106) =     -2.42430  eV     2   --> B_2  D_4  S_4  
     e(107 -107) =     -2.36616  eV     1   --> B_2  D_4  S_4  
     e(108 -108) =     -2.35900  eV     1   --> B_1  D_3  S_3  
     e(109 -109) =     -1.74460  eV     1   --> A_1  D_1  S_1  
     e(110 -111) =     -1.62816  eV     2   --> A_1  D_1  S_1  
     e(110 -111) =     -1.62816  eV     2   --> B_1  D_3  S_3  
     e(112 -113) =     -1.52403  eV     2   --> A_1  D_1  S_1  
     e(112 -113) =     -1.52403  eV     2   --> B_1  D_3  S_3  
     e(114 -115) =     -1.35801  eV     2   --> A_1  D_1  S_1  
     e(114 -115) =     -1.35801  eV     2   --> B_1  D_3  S_3  
     e(116 -116) =     -1.31723  eV     1   --> A_1  D_1  S_1  
     e(117 -117) =     -1.11203  eV     1   --> A_1  D_1  S_1  
     e(118 -119) =      0.71001  eV     2   --> A_1  D_1  S_1  
     e(118 -119) =      0.71001  eV     2   --> B_1  D_3  S_3  
     e(120 -120) =      0.90366  eV     1   --> A_1  D_1  S_1  
     e(121 -121) =      0.90458  eV     1   --> B_1  D_3  S_3  
     e(122 -122) =      0.90484  eV     1   --> A_1  D_1  S_1  
     e(123 -124) =      0.98608  eV     2   --> A_1  D_1  S_1  
     e(123 -124) =      0.98608  eV     2   --> B_1  D_3  S_3  
     e(125 -125) =      1.01456  eV     1   --> A_1  D_1  S_1  
     e(126 -126) =      1.02931  eV     1   --> B_1  D_3  S_3  
     e(127 -127) =      1.12031  eV     1   --> B_2  D_4  S_4  
     e(128 -128) =      1.16437  eV     1   --> B_1  D_3  S_3  
     e(129 -129) =      1.17491  eV     1   --> B_2  D_4  S_4  
     e(130 -131) =      1.18468  eV     2   --> A_1  D_1  S_1  
     e(130 -131) =      1.18468  eV     2   --> B_1  D_3  S_3  
     e(132 -133) =      1.28046  eV     2   --> A_2  D_2  S_2  
     e(132 -133) =      1.28046  eV     2   --> B_2  D_4  S_4  
     e(134 -134) =      1.29776  eV     1   --> B_1  D_3  S_3  
     e(135 -136) =      1.35255  eV     2   --> A_1  D_1  S_1  
     e(135 -136) =      1.35255  eV     2   --> B_1  D_3  S_3  
     e(137 -137) =      1.40907  eV     1   --> A_1  D_1  S_1  
     e(138 -139) =      1.55131  eV     2   --> A_1  D_1  S_1  
     e(138 -139) =      1.55131  eV     2   --> B_1  D_3  S_3  
     e(140 -140) =      1.78979  eV     1   --> A_2  D_2  S_2  
     e(141 -142) =      1.93913  eV     2   --> A_2  D_2  S_2  
     e(141 -142) =      1.93913  eV     2   --> B_2  D_4  S_4  
     e(143 -144) =      1.94193  eV     2   --> A_2  D_2  S_2  
     e(143 -144) =      1.94193  eV     2   --> B_2  D_4  S_4  
     e(145 -145) =      2.03663  eV     1   --> A_2  D_2  S_2  
     e(146 -146) =      2.22586  eV     1   --> B_2  D_4  S_4  
     e(147 -148) =      2.61493  eV     2   --> A_2  D_2  S_2  
     e(147 -148) =      2.61493  eV     2   --> B_2  D_4  S_4  
     e(149 -150) =      2.74631  eV     2   --> A_2  D_2  S_2  
     e(149 -150) =      2.74631  eV     2   --> B_2  D_4  S_4  
     e(151 -152) =      2.81359  eV     2   --> A_2  D_2  S_2  
     e(151 -152) =      2.81359  eV     2   --> B_2  D_4  S_4  
     e(153 -153) =      2.81850  eV     1   --> A_2  D_2  S_2  
     e(154 -154) =      3.54181  eV     1   --> A_1  D_1  S_1  
     e(155 -155) =      3.78269  eV     1   --> B_2  D_4  S_4  
     e(156 -156) =      3.82592  eV     1   --> A_1  D_1  S_1  
     e(157 -157) =      4.00549  eV     1   --> A_1  D_1  S_1  
     e(158 -158) =      4.02558  eV     1   --> A_1  D_1  S_1  
     e(159 -159) =      4.05126  eV     1   --> B_2  D_4  S_4  
     e(160 -160) =      4.31126  eV     1   --> A_1  D_1  S_1  
     e(161 -162) =      4.55915  eV     2   --> A_1  D_1  S_1  
     e(161 -162) =      4.55915  eV     2   --> B_1  D_3  S_3  
     e(163 -163) =      4.73059  eV     1   --> A_1  D_1  S_1  
     e(164 -165) =      4.78113  eV     2   --> A_2  D_2  S_2  
     e(164 -165) =      4.78113  eV     2   --> B_2  D_4  S_4  
     e(166 -167) =      4.79746  eV     2   --> A_1  D_1  S_1  
     e(166 -167) =      4.79746  eV     2   --> B_1  D_3  S_3  
     e(168 -169) =      4.83160  eV     2   --> A_1  D_1  S_1  
     e(168 -169) =      4.83160  eV     2   --> B_1  D_3  S_3  
     e(170 -170) =      4.90087  eV     1   --> B_2  D_4  S_4  
     e(171 -172) =      5.07971  eV     2   --> A_1  D_1  S_1  
     e(171 -172) =      5.07971  eV     2   --> B_1  D_3  S_3  
     e(173 -173) =      5.16250  eV     1   --> B_2  D_4  S_4  
     e(174 -174) =      5.23228  eV     1   --> A_1  D_1  S_1  
     e(175 -175) =      5.61044  eV     1   --> A_1  D_1  S_1  
     e(176 -177) =      5.82535  eV     2   --> A_1  D_1  S_1  
     e(176 -177) =      5.82535  eV     2   --> B_1  D_3  S_3  
     e(178 -178) =      5.83759  eV     1   --> A_1  D_1  S_1  
     e(179 -179) =      5.84637  eV     1   --> B_2  D_4  S_4  
     e(180 -181) =      5.86449  eV     2   --> A_2  D_2  S_2  
     e(180 -181) =      5.86449  eV     2   --> B_2  D_4  S_4  
     e(182 -183) =      6.02571  eV     2   --> A_2  D_2  S_2  
     e(182 -183) =      6.02571  eV     2   --> B_2  D_4  S_4  
     e(184 -184) =      6.16566  eV     1   --> A_1  D_1  S_1  
     e(185 -186) =      6.18635  eV     2   --> A_1  D_1  S_1  
     e(185 -186) =      6.18635  eV     2   --> B_1  D_3  S_3  
     e(187 -188) =      6.18835  eV     2   --> A_1  D_1  S_1  
     e(187 -188) =      6.18835  eV     2   --> B_1  D_3  S_3  
     e(189 -189) =      6.43329  eV     1   -->   ?

 **************************************************************************

 **************************************************************************

                    xk=(   0.00000,   0.46188,   0.00000  )

     Band symmetry, C_2v (mm2)  point group:

     e(  1 -  1) =    -56.69448  eV     1   --> A_1  D_1  S_1  
     e(  2 -  2) =    -56.69090  eV     1   --> A_1  D_1  S_1  
     e(  3 -  4) =    -56.68567  eV     2   --> A_1  D_1  S_1  
     e(  3 -  4) =    -56.68567  eV     2   --> B_1  D_3  S_3  
     e(  5 -  5) =    -56.68019  eV     1   --> A_1  D_1  S_1  
     e(  6 -  6) =    -56.67956  eV     1   --> B_1  D_3  S_3  
     e(  7 -  7) =    -56.67921  eV     1   --> A_1  D_1  S_1  
     e(  8 -  8) =    -56.67754  eV     1   --> B_1  D_3  S_3  
     e(  9 -  9) =    -56.67559  eV     1   --> A_1  D_1  S_1  
     e( 10 - 10) =    -32.88324  eV     1   --> A_1  D_1  S_1  
     e( 11 - 12) =    -32.85633  eV     2   --> A_1  D_1  S_1  
     e( 11 - 12) =    -32.85633  eV     2   --> B_1  D_3  S_3  
     e( 13 - 14) =    -32.85337  eV     2   --> A_1  D_1  S_1  
     e( 13 - 14) =    -32.85337  eV     2   --> B_1  D_3  S_3  
     e( 15 - 15) =    -32.79095  eV     1   --> A_1  D_1  S_1  
     e( 16 - 16) =    -32.79083  eV     1   --> B_1  D_3  S_3  
     e( 17 - 18) =    -32.74816  eV     2   --> A_1  D_1  S_1  
     e( 17 - 18) =    -32.74816  eV     2   --> B_1  D_3  S_3  
     e( 19 - 19) =    -32.74343  eV     1   --> B_2  D_4  S_4  
     e( 20 - 20) =    -32.73368  eV     1   --> B_2  D_4  S_4  
     e( 21 - 21) =    -32.73213  eV     1   --> A_1  D_1  S_1  
     e( 22 - 23) =    -32.72203  eV     2   --> A_1  D_1  S_1  
     e( 22 - 23) =    -32.72203  eV     2   --> B_1  D_3  S_3  
     e( 24 - 25) =    -32.71956  eV     2   --> A_2  D_2  S_2  
     e( 24 - 25) =    -32.71956  eV     2   --> B_2  D_4  S_4  
     e( 26 - 26) =    -32.70619  eV     1   --> B_1  D_3  S_3  
     e( 27 - 27) =    -32.70301  eV     1   --> B_2  D_4  S_4  
     e( 28 - 28) =    -32.70280  eV     1   --> A_2  D_2  S_2  
     e( 29 - 29) =    -32.70038  eV     1   --> B_2  D_4  S_4  
     e( 30 - 30) =    -32.69685  eV     1   --> A_2  D_2  S_2  
     e( 31 - 31) =    -32.69601  eV     1   --> B_2  D_4  S_4  
     e( 32 - 33) =    -32.69445  eV     2   --> A_1  D_1  S_1  
     e( 32 - 33) =    -32.69445  eV     2   --> B_1  D_3  S_3  
     e( 34 - 34) =    -32.69054  eV     1   --> A_1  D_1  S_1  
     e( 35 - 35) =    -32.66893  eV     1   --> B_1  D_3  S_3  
     e( 36 - 36) =    -32.65824  eV     1   --> B_1  D_3  S_3  
     e( 37 - 37) =    -14.93812  eV     1   --> A_1  D_1  S_1  
     e( 38 - 38) =    -14.72251  eV     1   --> A_1  D_1  S_1  
     e( 39 - 40) =    -14.35484  eV     2   --> A_1  D_1  S_1  
     e( 39 - 40) =    -14.35484  eV     2   --> B_1  D_3  S_3  
     e( 41 - 41) =    -14.08941  eV     1   --> B_2  D_4  S_4  
     e( 42 - 42) =    -13.99105  eV     1   --> B_2  D_4  S_4  
     e( 43 - 44) =    -13.88584  eV     2   --> A_1  D_1  S_1  
     e( 43 - 44) =    -13.88584  eV     2   --> B_1  D_3  S_3  
     e( 45 - 46) =    -13.82297  eV     2   --> A_2  D_2  S_2  
     e( 45 - 46) =    -13.82297  eV     2   --> B_2  D_4  S_4  
     e( 47 - 47) =    -13.81882  eV     1   --> A_1  D_1  S_1  
     e( 48 - 49) =    -13.74809  eV     2   --> A_1  D_1  S_1  
     e( 48 - 49) =    -13.74809  eV     2   --> B_1  D_3  S_3  
     e( 50 - 51) =    -13.61049  eV     2   --> A_2  D_2  S_2  
     e( 50 - 51) =    -13.61049  eV     2   --> B_2  D_4  S_4  
     e( 52 - 52) =    -13.58742  eV     1   --> B_2  D_4  S_4  
     e( 53 - 54) =    -13.54311  eV     2   --> A_2  D_2  S_2  
     e( 53 - 54) =    -13.54311  eV     2   --> B_2  D_4  S_4  
     e( 55 - 55) =     -6.48714  eV     1   --> A_1  D_1  S_1  
     e( 56 - 56) =     -6.12989  eV     1   --> A_1  D_1  S_1  
     e( 57 - 58) =     -6.10366  eV     2   --> A_1  D_1  S_1  
     e( 57 - 58) =     -6.10366  eV     2   --> B_1  D_3  S_3  
     e( 59 - 60) =     -5.99472  eV     2   --> A_1  D_1  S_1  
     e( 59 - 60) =     -5.99472  eV     2   --> B_1  D_3  S_3  
     e( 61 - 61) =     -5.86802  eV     1   --> A_1  D_1  S_1  
     e( 62 - 63) =     -5.65102  eV     2   --> A_2  D_2  S_2  
     e( 62 - 63) =     -5.65102  eV     2   --> B_2  D_4  S_4  
     e( 64 - 65) =     -5.58359  eV     2   --> A_1  D_1  S_1  
     e( 64 - 65) =     -5.58359  eV     2   --> B_1  D_3  S_3  
     e( 66 - 66) =     -5.56755  eV     1   --> B_2  D_4  S_4  
     e( 67 - 68) =     -5.42729  eV     2   --> A_2  D_2  S_2  
     e( 67 - 68) =     -5.42729  eV     2   --> B_2  D_4  S_4  
     e( 69 - 70) =     -5.05943  eV     2   --> A_1  D_1  S_1  
     e( 69 - 70) =     -5.05943  eV     2   --> B_1  D_3  S_3  
     e( 71 - 71) =     -4.91778  eV     1   --> A_1  D_1  S_1  
     e( 72 - 73) =     -4.88861  eV     2   --> A_1  D_1  S_1  
     e( 72 - 73) =     -4.88861  eV     2   --> B_1  D_3  S_3  
     e( 74 - 75) =     -4.80723  eV     2   --> A_1  D_1  S_1  
     e( 74 - 75) =     -4.80723  eV     2   --> B_1  D_3  S_3  
     e( 76 - 76) =     -4.54029  eV     1   --> A_1  D_1  S_1  
     e( 77 - 78) =     -4.53055  eV     2   --> A_2  D_2  S_2  
     e( 77 - 78) =     -4.53055  eV     2   --> B_2  D_4  S_4  
     e( 79 - 80) =     -4.10367  eV     2   --> A_2  D_2  S_2  
     e( 79 - 80) =     -4.10367  eV     2   --> B_2  D_4  S_4  
     e( 81 - 82) =     -4.04173  eV     2   --> A_2  D_2  S_2  
     e( 81 - 82) =     -4.04173  eV     2   --> B_2  D_4  S_4  
     e( 83 - 83) =     -3.98689  eV     1   --> B_2  D_4  S_4  
     e( 84 - 84) =     -3.98237  eV     1   --> A_1  D_1  S_1  
     e( 85 - 85) =     -3.90760  eV     1   --> A_2  D_2  S_2  
     e( 86 - 87) =     -3.90148  eV     2   --> A_2  D_2  S_2  
     e( 86 - 87) =     -3.90148  eV     2   --> B_2  D_4  S_4  
     e( 88 - 89) =     -3.88288  eV     2   --> A_1  D_1  S_1  
     e( 88 - 89) =     -3.88288  eV     2   --> B_1  D_3  S_3  
     e( 90 - 90) =     -3.52275  eV     1   --> B_2  D_4  S_4  
     e( 91 - 92) =     -3.23977  eV     2   --> A_1  D_1  S_1  
     e( 91 - 92) =     -3.23977  eV     2   --> B_1  D_3  S_3  
     e( 93 - 93) =     -3.18244  eV     1   --> B_1  D_3  S_3  
     e( 94 - 94) =     -3.07136  eV     1   -->   ?
     e( 95 - 96) =     -3.03274  eV     2   --> A_1  D_1  S_1  
     e( 95 - 96) =     -3.03274  eV     2   --> B_1  D_3  S_3  
     e( 97 - 97) =     -2.98438  eV     1   --> B_2  D_4  S_4  
     e( 98 - 98) =     -2.98355  eV     1   -->   ?
     e( 99 -100) =     -2.97080  eV     2   --> A_2  D_2  S_2  
     e( 99 -100) =     -2.97080  eV     2   --> B_2  D_4  S_4  
     e(101 -102) =     -2.85533  eV     2   --> A_2  D_2  S_2  
     e(101 -102) =     -2.85533  eV     2   --> B_2  D_4  S_4  
     e(103 -103) =     -2.76002  eV     1   --> A_2  D_2  S_2  
     e(104 -104) =     -2.50126  eV     1   --> B_2  D_4  S_4  
     e(105 -106) =     -2.43995  eV     2   --> A_2  D_2  S_2  
     e(105 -106) =     -2.43995  eV     2   --> B_2  D_4  S_4  
     e(107 -107) =     -2.36269  eV     1   --> B_1  D_3  S_3  
     e(108 -108) =     -2.35501  eV     1   --> B_2  D_4  S_4  
     e(109 -109) =     -1.75178  eV     1   --> A_1  D_1  S_1  
     e(110 -111) =     -1.63673  eV     2   --> A_1  D_1  S_1  
     e(110 -111) =     -1.63673  eV     2   --> B_1  D_3  S_3  
     e(112 -113) =     -1.55325  eV     2   --> A_1  D_1  S_1  
     e(112 -113) =     -1.55325  eV     2   --> B_1  D_3  S_3  
     e(114 -114) =     -1.35550  eV     1   --> A_1  D_1  S_1  
     e(115 -116) =     -1.32769  eV     2   --> A_1  D_1  S_1  
     e(115 -116) =     -1.32769  eV     2   --> B_1  D_3  S_3  
     e(117 -117) =     -1.08532  eV     1   --> A_1  D_1  S_1  
     e(118 -119) =      0.71477  eV     2   --> A_1  D_1  S_1  
     e(118 -119) =      0.71477  eV     2   --> B_1  D_3  S_3  
     e(120 -121) =      0.87763  eV     2   --> A_1  D_1  S_1  
     e(120 -121) =      0.87763  eV     2   --> B_1  D_3  S_3  
     e(122 -122) =      0.89774  eV     1   --> A_1  D_1  S_1  
     e(123 -124) =      0.98158  eV     2   --> A_1  D_1  S_1  
     e(123 -124) =      0.98158  eV     2   --> B_1  D_3  S_3  
     e(125 -125) =      1.02615  eV     1   --> B_1  D_3  S_3  
     e(126 -126) =      1.04317  eV     1   --> A_1  D_1  S_1  
     e(127 -127) =      1.12132  eV     1   --> B_2  D_4  S_4  
     e(128 -128) =      1.14653  eV     1   --> B_1  D_3  S_3  
     e(129 -130) =      1.18084  eV     2   --> A_1  D_1  S_1  
     e(129 -130) =      1.18084  eV     2   --> B_1  D_3  S_3  
     e(131 -131) =      1.19746  eV     1   --> B_2  D_4  S_4  
     e(132 -133) =      1.29581  eV     2   --> A_2  D_2  S_2  
     e(132 -133) =      1.29581  eV     2   --> B_2  D_4  S_4  
     e(134 -134) =      1.31990  eV     1   --> B_1  D_3  S_3  
     e(135 -136) =      1.33066  eV     2   --> A_1  D_1  S_1  
     e(135 -136) =      1.33066  eV     2   --> B_1  D_3  S_3  
     e(137 -137) =      1.40236  eV     1   --> A_1  D_1  S_1  
     e(138 -139) =      1.59290  eV     2   --> A_1  D_1  S_1  
     e(138 -139) =      1.59290  eV     2   --> B_1  D_3  S_3  
     e(140 -140) =      1.74985  eV     1   --> A_2  D_2  S_2  
     e(141 -142) =      1.93254  eV     2   --> A_2  D_2  S_2  
     e(141 -142) =      1.93254  eV     2   --> B_2  D_4  S_4  
     e(143 -144) =      1.93780  eV     2   --> A_2  D_2  S_2  
     e(143 -144) =      1.93780  eV     2   --> B_2  D_4  S_4  
     e(145 -145) =      2.07576  eV     1   --> A_2  D_2  S_2  
     e(146 -146) =      2.21808  eV     1   --> B_2  D_4  S_4  
     e(147 -148) =      2.60987  eV     2   --> A_2  D_2  S_2  
     e(147 -148) =      2.60987  eV     2   --> B_2  D_4  S_4  
     e(149 -150) =      2.73936  eV     2   --> A_2  D_2  S_2  
     e(149 -150) =      2.73936  eV     2   --> B_2  D_4  S_4  
     e(151 -151) =      2.81483  eV     1   --> A_2  D_2  S_2  
     e(152 -153) =      2.82990  eV     2   --> A_2  D_2  S_2  
     e(152 -153) =      2.82990  eV     2   --> B_2  D_4  S_4  
     e(154 -154) =      3.49666  eV     1   --> A_1  D_1  S_1  
     e(155 -155) =      3.74493  eV     1   --> B_2  D_4  S_4  
     e(156 -156) =      3.87661  eV     1   --> A_1  D_1  S_1  
     e(157 -157) =      3.95578  eV     1   --> A_1  D_1  S_1  
     e(158 -158) =      4.05800  eV     1   --> A_1  D_1  S_1  
     e(159 -159) =      4.10286  eV     1   --> B_2  D_4  S_4  
     e(160 -160) =      4.36443  eV     1   --> A_1  D_1  S_1  
     e(161 -162) =      4.56271  eV     2   --> A_1  D_1  S_1  
     e(161 -162) =      4.56271  eV     2   --> B_1  D_3  S_3  
     e(163 -163) =      4.65046  eV     1   --> A_1  D_1  S_1  
     e(164 -165) =      4.78760  eV     2   --> A_2  D_2  S_2  
     e(164 -165) =      4.78760  eV     2   --> B_2  D_4  S_4  
     e(166 -167) =      4.79863  eV     2   --> A_1  D_1  S_1  
     e(166 -167) =      4.79863  eV     2   --> B_1  D_3  S_3  
     e(168 -169) =      4.84226  eV     2   --> A_1  D_1  S_1  
     e(168 -169) =      4.84226  eV     2   --> B_1  D_3  S_3  
     e(170 -170) =      4.86383  eV     1   --> B_2  D_4  S_4  
     e(171 -172) =      5.08420  eV     2   --> A_1  D_1  S_1  
     e(171 -172) =      5.08420  eV     2   --> B_1  D_3  S_3  
     e(173 -173) =      5.21241  eV     1   --> B_2  D_4  S_4  
     e(174 -174) =      5.31054  eV     1   --> A_1  D_1  S_1  
     e(175 -175) =      5.59136  eV     1   --> A_1  D_1  S_1  
     e(176 -177) =      5.75461  eV     2   --> A_1  D_1  S_1  
     e(176 -177) =      5.75461  eV     2   --> B_1  D_3  S_3  
     e(178 -178) =      5.79315  eV     1   --> A_1  D_1  S_1  
     e(179 -179) =      5.83893  eV     1   --> B_2  D_4  S_4  
     e(180 -181) =      5.87021  eV     2   --> A_2  D_2  S_2  
     e(180 -181) =      5.87021  eV     2   --> B_2  D_4  S_4  
     e(182 -183) =      5.95945  eV     2   --> A_2  D_2  S_2  
     e(182 -183) =      5.95945  eV     2   --> B_2  D_4  S_4  
     e(184 -185) =      6.16977  eV     2   --> A_1  D_1  S_1  
     e(184 -185) =      6.16977  eV     2   --> B_1  D_3  S_3  
     e(186 -187) =      6.20315  eV     2   --> A_1  D_1  S_1  
     e(186 -187) =      6.20315  eV     2   --> B_1  D_3  S_3  
     e(188 -188) =      6.22783  eV     1   --> A_1  D_1  S_1  
     e(189 -189) =      6.40141  eV     1   -->   ?

 **************************************************************************

 **************************************************************************

                    xk=(   0.00000,   0.43301,   0.00000  )

     Band symmetry, C_2v (mm2)  point group:

     e(  1 -  1) =    -56.69481  eV     1   --> A_1  D_1  S_1  
     e(  2 -  2) =    -56.69049  eV     1   --> A_1  D_1  S_1  
     e(  3 -  4) =    -56.68553  eV     2   --> A_1  D_1  S_1  
     e(  3 -  4) =    -56.68553  eV     2   --> B_1  D_3  S_3  
     e(  5 -  5) =    -56.68027  eV     1   --> A_1  D_1  S_1  
     e(  6 -  6) =    -56.67970  eV     1   --> B_1  D_3  S_3  
     e(  7 -  7) =    -56.67921  eV     1   --> A_1  D_1  S_1  
     e(  8 -  8) =    -56.67740  eV     1   --> B_1  D_3  S_3  
     e(  9 -  9) =    -56.67553  eV     1   --> A_1  D_1  S_1  
     e( 10 - 10) =    -32.88154  eV     1   --> A_1  D_1  S_1  
     e( 11 - 11) =    -32.85550  eV     1   --> B_1  D_3  S_3  
     e( 12 - 12) =    -32.85540  eV     1   --> A_1  D_1  S_1  
     e( 13 - 14) =    -32.85265  eV     2   --> A_1  D_1  S_1  
     e( 13 - 14) =    -32.85265  eV     2   --> B_1  D_3  S_3  
     e( 15 - 15) =    -32.79181  eV     1   --> A_1  D_1  S_1  
     e( 16 - 16) =    -32.79169  eV     1   --> B_1  D_3  S_3  
     e( 17 - 18) =    -32.75193  eV     2   --> A_1  D_1  S_1  
     e( 17 - 18) =    -32.75193  eV     2   --> B_1  D_3  S_3  
     e( 19 - 19) =    -32.74494  eV     1   --> B_2  D_4  S_4  
     e( 20 - 20) =    -32.73763  eV     1   --> A_1  D_1  S_1  
     e( 21 - 21) =    -32.73286  eV     1   --> B_2  D_4  S_4  
     e( 22 - 23) =    -32.71927  eV     2   --> A_2  D_2  S_2  
     e( 22 - 23) =    -32.71927  eV     2   --> B_2  D_4  S_4  
     e( 24 - 25) =    -32.71842  eV     2   --> A_1  D_1  S_1  
     e( 24 - 25) =    -32.71842  eV     2   --> B_1  D_3  S_3  
     e( 26 - 26) =    -32.70533  eV     1   --> B_1  D_3  S_3  
     e( 27 - 27) =    -32.70331  eV     1   --> B_2  D_4  S_4  
     e( 28 - 28) =    -32.70312  eV     1   --> A_2  D_2  S_2  
     e( 29 - 29) =    -32.70061  eV     1   --> B_2  D_4  S_4  
     e( 30 - 30) =    -32.69657  eV     1   --> A_2  D_2  S_2  
     e( 31 - 31) =    -32.69579  eV     1   --> B_2  D_4  S_4  
     e( 32 - 33) =    -32.69350  eV     2   --> A_1  D_1  S_1  
     e( 32 - 33) =    -32.69350  eV     2   --> B_1  D_3  S_3  
     e( 34 - 34) =    -32.68595  eV     1   --> A_1  D_1  S_1  
     e( 35 - 35) =    -32.67068  eV     1   --> B_1  D_3  S_3  
     e( 36 - 36) =    -32.65687  eV     1   --> B_1  D_3  S_3  
     e( 37 - 37) =    -14.96015  eV     1   --> A_1  D_1  S_1  
     e( 38 - 38) =    -14.69147  eV     1   --> A_1  D_1  S_1  
     e( 39 - 40) =    -14.35053  eV     2   --> A_1  D_1  S_1  
     e( 39 - 40) =    -14.35053  eV     2   --> B_1  D_3  S_3  
     e( 41 - 41) =    -14.09950  eV     1   --> B_2  D_4  S_4  
     e( 42 - 42) =    -13.97700  eV     1   --> B_2  D_4  S_4  
     e( 43 - 44) =    -13.90477  eV     2   --> A_1  D_1  S_1  
     e( 43 - 44) =    -13.90477  eV     2   --> B_1  D_3  S_3  
     e( 45 - 45) =    -13.82871  eV     1   --> A_1  D_1  S_1  
     e( 46 - 47) =    -13.82110  eV     2   --> A_2  D_2  S_2  
     e( 46 - 47) =    -13.82110  eV     2   --> B_2  D_4  S_4  
     e( 48 - 49) =    -13.73348  eV     2   --> A_1  D_1  S_1  
     e( 48 - 49) =    -13.73348  eV     2   --> B_1  D_3  S_3  
     e( 50 - 51) =    -13.61949  eV     2   --> A_2  D_2  S_2  
     e( 50 - 51) =    -13.61949  eV     2   --> B_2  D_4  S_4  
     e( 52 - 52) =    -13.59174  eV     1   --> B_2  D_4  S_4  
     e( 53 - 54) =    -13.53583  eV     2   --> A_2  D_2  S_2  
     e( 53 - 54) =    -13.53583  eV     2   --> B_2  D_4  S_4  
     e( 55 - 55) =     -6.47099  eV     1   --> A_1  D_1  S_1  
     e( 56 - 56) =     -6.15855  eV     1   --> A_1  D_1  S_1  
     e( 57 - 58) =     -6.10596  eV     2   --> A_1  D_1  S_1  
     e( 57 - 58) =     -6.10596  eV     2   --> B_1  D_3  S_3  
     e( 59 - 60) =     -5.96999  eV     2   --> A_1  D_1  S_1  
     e( 59 - 60) =     -5.96999  eV     2   --> B_1  D_3  S_3  
     e( 61 - 61) =     -5.83489  eV     1   --> A_1  D_1  S_1  
     e( 62 - 63) =     -5.67669  eV     2   --> A_2  D_2  S_2  
     e( 62 - 63) =     -5.67669  eV     2   --> B_2  D_4  S_4  
     e( 64 - 65) =     -5.59232  eV     2   --> A_1  D_1  S_1  
     e( 64 - 65) =     -5.59232  eV     2   --> B_1  D_3  S_3  
     e( 66 - 66) =     -5.55258  eV     1   --> B_2  D_4  S_4  
     e( 67 - 68) =     -5.39805  eV     2   --> A_2  D_2  S_2  
     e( 67 - 68) =     -5.39805  eV     2   --> B_2  D_4  S_4  
     e( 69 - 70) =     -5.06283  eV     2   --> A_1  D_1  S_1  
     e( 69 - 70) =     -5.06283  eV     2   --> B_1  D_3  S_3  
     e( 71 - 71) =     -4.91922  eV     1   --> A_1  D_1  S_1  
     e( 72 - 73) =     -4.89977  eV     2   --> A_1  D_1  S_1  
     e( 72 - 73) =     -4.89977  eV     2   --> B_1  D_3  S_3  
     e( 74 - 75) =     -4.80001  eV     2   --> A_1  D_1  S_1  
     e( 74 - 75) =     -4.80001  eV     2   --> B_1  D_3  S_3  
     e( 76 - 76) =     -4.60961  eV     1   --> A_1  D_1  S_1  
     e( 77 - 78) =     -4.55250  eV     2   --> A_2  D_2  S_2  
     e( 77 - 78) =     -4.55250  eV     2   --> B_2  D_4  S_4  
     e( 79 - 80) =     -4.10351  eV     2   --> A_2  D_2  S_2  
     e( 79 - 80) =     -4.10351  eV     2   --> B_2  D_4  S_4  
     e( 81 - 81) =     -4.04918  eV     1   --> B_2  D_4  S_4  
     e( 82 - 83) =     -4.02341  eV     2   --> A_2  D_2  S_2  
     e( 82 - 83) =     -4.02341  eV     2   --> B_2  D_4  S_4  
     e( 84 - 85) =     -3.96485  eV     2   --> A_1  D_1  S_1  
     e( 84 - 85) =     -3.96485  eV     2   --> B_1  D_3  S_3  
     e( 86 - 86) =     -3.91658  eV     1   --> A_1  D_1  S_1  
     e( 87 - 87) =     -3.90077  eV     1   --> A_2  D_2  S_2  
     e( 88 - 89) =     -3.87782  eV     2   --> A_2  D_2  S_2  
     e( 88 - 89) =     -3.87782  eV     2   --> B_2  D_4  S_4  
     e( 90 - 90) =     -3.47041  eV     1   --> B_2  D_4  S_4  
     e( 91 - 91) =     -3.20229  eV     1   --> B_1  D_3  S_3  
     e( 92 - 93) =     -3.16508  eV     2   --> A_1  D_1  S_1  
     e( 92 - 93) =     -3.16508  eV     2   --> B_1  D_3  S_3  
     e( 94 - 94) =     -3.11156  eV     1   --> A_2  D_2  S_2  
     e( 95 - 96) =     -3.01288  eV     2   --> A_1  D_1  S_1  
     e( 95 - 96) =     -3.01288  eV     2   --> B_1  D_3  S_3  
     e( 97 - 98) =     -2.99004  eV     2   --> A_2  D_2  S_2  
     e( 97 - 98) =     -2.99004  eV     2   --> B_2  D_4  S_4  
     e( 99 - 99) =     -2.98160  eV     1   --> B_2  D_4  S_4  
     e(100 -100) =     -2.95614  eV     1   --> B_1  D_3  S_3  
     e(101 -102) =     -2.84715  eV     2   --> A_2  D_2  S_2  
     e(101 -102) =     -2.84715  eV     2   --> B_2  D_4  S_4  
     e(103 -103) =     -2.72547  eV     1   --> A_2  D_2  S_2  
     e(104 -104) =     -2.52552  eV     1   --> B_2  D_4  S_4  
     e(105 -106) =     -2.45918  eV     2   --> A_2  D_2  S_2  
     e(105 -106) =     -2.45918  eV     2   --> B_2  D_4  S_4  
     e(107 -107) =     -2.36730  eV     1   --> B_1  D_3  S_3  
     e(108 -108) =     -2.34657  eV     1   --> B_2  D_4  S_4  
     e(109 -109) =     -1.75919  eV     1   --> A_1  D_1  S_1  
     e(110 -111) =     -1.64255  eV     2   --> A_1  D_1  S_1  
     e(110 -111) =     -1.64255  eV     2   --> B_1  D_3  S_3  
     e(112 -113) =     -1.57781  eV     2   --> A_1  D_1  S_1  
     e(112 -113) =     -1.57781  eV     2   --> B_1  D_3  S_3  
     e(114 -114) =     -1.39711  eV     1   --> A_1  D_1  S_1  
     e(115 -116) =     -1.29793  eV     2   --> A_1  D_1  S_1  
     e(115 -116) =     -1.29793  eV     2   --> B_1  D_3  S_3  
     e(117 -117) =     -1.05910  eV     1   --> A_1  D_1  S_1  
     e(118 -119) =      0.72621  eV     2   --> A_1  D_1  S_1  
     e(118 -119) =      0.72621  eV     2   --> B_1  D_3  S_3  
     e(120 -121) =      0.84758  eV     2   --> A_1  D_1  S_1  
     e(120 -121) =      0.84758  eV     2   --> B_1  D_3  S_3  
     e(122 -122) =      0.89393  eV     1   --> A_1  D_1  S_1  
     e(123 -124) =      0.97871  eV     2   --> A_1  D_1  S_1  
     e(123 -124) =      0.97871  eV     2   --> B_1  D_3  S_3  
     e(125 -125) =      1.02313  eV     1   --> B_1  D_3  S_3  
     e(126 -126) =      1.07677  eV     1   -->   ?
     e(127 -127) =      1.12633  eV     1   --> B_1  D_3  S_3  
     e(128 -128) =      1.12746  eV     1   -->   ?
     e(129 -130) =      1.17784  eV     2   --> A_1  D_1  S_1  
     e(129 -130) =      1.17784  eV     2   --> B_1  D_3  S_3  
     e(131 -131) =      1.22400  eV     1   --> B_2  D_4  S_4  
     e(132 -133) =      1.31494  eV     2   --> A_1  D_1  S_1  
     e(132 -133) =      1.31494  eV     2   --> B_1  D_3  S_3  
     e(134 -135) =      1.31866  eV     2   --> A_2  D_2  S_2  
     e(134 -135) =      1.31866  eV     2   --> B_2  D_4  S_4  
     e(136 -136) =      1.34321  eV     1   --> B_1  D_3  S_3  
     e(137 -137) =      1.39348  eV     1   --> A_1  D_1  S_1  
     e(138 -139) =      1.63533  eV     2   --> A_1  D_1  S_1  
     e(138 -139) =      1.63533  eV     2   --> B_1  D_3  S_3  
     e(140 -140) =      1.70837  eV     1   --> A_2  D_2  S_2  
     e(141 -142) =      1.92501  eV     2   --> A_2  D_2  S_2  
     e(141 -142) =      1.92501  eV     2   --> B_2  D_4  S_4  
     e(143 -144) =      1.93518  eV     2   --> A_2  D_2  S_2  
     e(143 -144) =      1.93518  eV     2   --> B_2  D_4  S_4  
     e(145 -145) =      2.11461  eV     1   --> A_2  D_2  S_2  
     e(146 -146) =      2.20808  eV     1   --> B_2  D_4  S_4  
     e(147 -148) =      2.60688  eV     2   --> A_2  D_2  S_2  
     e(147 -148) =      2.60688  eV     2   --> B_2  D_4  S_4  
     e(149 -150) =      2.73640  eV     2   --> A_2  D_2  S_2  
     e(149 -150) =      2.73640  eV     2   --> B_2  D_4  S_4  
     e(151 -151) =      2.81058  eV     1   --> A_2  D_2  S_2  
     e(152 -153) =      2.84463  eV     2   --> A_2  D_2  S_2  
     e(152 -153) =      2.84463  eV     2   --> B_2  D_4  S_4  
     e(154 -154) =      3.45183  eV     1   --> A_1  D_1  S_1  
     e(155 -155) =      3.70923  eV     1   --> B_2  D_4  S_4  
     e(156 -156) =      3.90652  eV     1   --> A_1  D_1  S_1  
     e(157 -157) =      3.92828  eV     1   --> A_1  D_1  S_1  
     e(158 -158) =      4.09920  eV     1   --> A_1  D_1  S_1  
     e(159 -159) =      4.15638  eV     1   --> B_2  D_4  S_4  
     e(160 -160) =      4.41851  eV     1   --> A_1  D_1  S_1  
     e(161 -162) =      4.56740  eV     2   --> A_1  D_1  S_1  
     e(161 -162) =      4.56740  eV     2   --> B_1  D_3  S_3  
     e(163 -163) =      4.57410  eV     1   --> A_1  D_1  S_1  
     e(164 -165) =      4.79600  eV     2   --> A_2  D_2  S_2  
     e(164 -165) =      4.79600  eV     2   --> B_2  D_4  S_4  
     e(166 -167) =      4.80148  eV     2   --> A_1  D_1  S_1  
     e(166 -167) =      4.80148  eV     2   --> B_1  D_3  S_3  
     e(168 -168) =      4.82874  eV     1   --> B_2  D_4  S_4  
     e(169 -170) =      4.85533  eV     2   --> A_1  D_1  S_1  
     e(169 -170) =      4.85533  eV     2   --> B_1  D_3  S_3  
     e(171 -172) =      5.09010  eV     2   --> A_1  D_1  S_1  
     e(171 -172) =      5.09010  eV     2   --> B_1  D_3  S_3  
     e(173 -173) =      5.26404  eV     1   --> B_2  D_4  S_4  
     e(174 -174) =      5.38523  eV     1   --> A_1  D_1  S_1  
     e(175 -175) =      5.56794  eV     1   --> A_1  D_1  S_1  
     e(176 -177) =      5.68571  eV     2   --> A_1  D_1  S_1  
     e(176 -177) =      5.68571  eV     2   --> B_1  D_3  S_3  
     e(178 -178) =      5.75182  eV     1   --> A_1  D_1  S_1  
     e(179 -179) =      5.82909  eV     1   --> B_2  D_4  S_4  
     e(180 -181) =      5.87755  eV     2   --> A_2  D_2  S_2  
     e(180 -181) =      5.87755  eV     2   --> B_2  D_4  S_4  
     e(182 -183) =      5.89435  eV     2   --> A_2  D_2  S_2  
     e(182 -183) =      5.89435  eV     2   --> B_2  D_4  S_4  
     e(184 -185) =      6.14942  eV     2   --> A_1  D_1  S_1  
     e(184 -185) =      6.14942  eV     2   --> B_1  D_3  S_3  
     e(186 -187) =      6.19051  eV     2   --> A_1  D_1  S_1  
     e(186 -187) =      6.19051  eV     2   --> B_1  D_3  S_3  
     e(188 -188) =      6.28943  eV     1   --> A_1  D_1  S_1  
     e(189 -189) =      6.32250  eV     1   -->   ?

 **************************************************************************

 **************************************************************************

                    xk=(   0.00000,   0.40415,   0.00000  )

     Band symmetry, C_2v (mm2)  point group:

     e(  1 -  1) =    -56.69513  eV     1   --> A_1  D_1  S_1  
     e(  2 -  2) =    -56.69005  eV     1   --> A_1  D_1  S_1  
     e(  3 -  4) =    -56.68547  eV     2   --> A_1  D_1  S_1  
     e(  3 -  4) =    -56.68547  eV     2   --> B_1  D_3  S_3  
     e(  5 -  5) =    -56.68050  eV     1   --> A_1  D_1  S_1  
     e(  6 -  6) =    -56.67999  eV     1   --> B_1  D_3  S_3  
     e(  7 -  7) =    -56.67932  eV     1   --> A_1  D_1  S_1  
     e(  8 -  8) =    -56.67718  eV     1   --> B_1  D_3  S_3  
     e(  9 -  9) =    -56.67547  eV     1   --> A_1  D_1  S_1  
     e( 10 - 10) =    -32.88010  eV     1   --> A_1  D_1  S_1  
     e( 11 - 12) =    -32.85473  eV     2   --> A_1  D_1  S_1  
     e( 11 - 12) =    -32.85473  eV     2   --> B_1  D_3  S_3  
     e( 13 - 14) =    -32.85128  eV     2   --> A_1  D_1  S_1  
     e( 13 - 14) =    -32.85128  eV     2   --> B_1  D_3  S_3  
     e( 15 - 15) =    -32.79333  eV     1   --> A_1  D_1  S_1  
     e( 16 - 16) =    -32.79321  eV     1   --> B_1  D_3  S_3  
     e( 17 - 18) =    -32.75526  eV     2   --> A_1  D_1  S_1  
     e( 17 - 18) =    -32.75526  eV     2   --> B_1  D_3  S_3  
     e( 19 - 19) =    -32.74565  eV     1   --> B_2  D_4  S_4  
     e( 20 - 20) =    -32.74400  eV     1   --> A_1  D_1  S_1  
     e( 21 - 21) =    -32.73156  eV     1   --> B_2  D_4  S_4  
     e( 22 - 23) =    -32.71918  eV     2   --> A_2  D_2  S_2  
     e( 22 - 23) =    -32.71918  eV     2   --> B_2  D_4  S_4  
     e( 24 - 25) =    -32.71556  eV     2   --> A_1  D_1  S_1  
     e( 24 - 25) =    -32.71556  eV     2   --> B_1  D_3  S_3  
     e( 26 - 26) =    -32.70496  eV     1   --> B_1  D_3  S_3  
     e( 27 - 27) =    -32.70443  eV     1   --> B_2  D_4  S_4  
     e( 28 - 28) =    -32.70430  eV     1   --> A_2  D_2  S_2  
     e( 29 - 29) =    -32.70141  eV     1   --> B_2  D_4  S_4  
     e( 30 - 30) =    -32.69623  eV     1   --> A_2  D_2  S_2  
     e( 31 - 31) =    -32.69555  eV     1   --> B_2  D_4  S_4  
     e( 32 - 32) =    -32.69301  eV     1   --> B_1  D_3  S_3  
     e( 33 - 33) =    -32.69288  eV     1   --> A_1  D_1  S_1  
     e( 34 - 34) =    -32.68196  eV     1   --> A_1  D_1  S_1  
     e( 35 - 35) =    -32.67183  eV     1   --> B_1  D_3  S_3  
     e( 36 - 36) =    -32.65582  eV     1   --> B_1  D_3  S_3  
     e( 37 - 37) =    -14.98099  eV     1   --> A_1  D_1  S_1  
     e( 38 - 38) =    -14.65973  eV     1   --> A_1  D_1  S_1  
     e( 39 - 40) =    -14.34532  eV     2   --> A_1  D_1  S_1  
     e( 39 - 40) =    -14.34532  eV     2   --> B_1  D_3  S_3  
     e( 41 - 41) =    -14.10899  eV     1   --> B_2  D_4  S_4  
     e( 42 - 42) =    -13.96256  eV     1   --> B_2  D_4  S_4  
     e( 43 - 44) =    -13.92397  eV     2   --> A_1  D_1  S_1  
     e( 43 - 44) =    -13.92397  eV     2   --> B_1  D_3  S_3  
     e( 45 - 45) =    -13.84075  eV     1   --> A_1  D_1  S_1  
     e( 46 - 47) =    -13.81887  eV     2   --> A_2  D_2  S_2  
     e( 46 - 47) =    -13.81887  eV     2   --> B_2  D_4  S_4  
     e( 48 - 49) =    -13.71952  eV     2   --> A_1  D_1  S_1  
     e( 48 - 49) =    -13.71952  eV     2   --> B_1  D_3  S_3  
     e( 50 - 51) =    -13.62863  eV     2   --> A_2  D_2  S_2  
     e( 50 - 51) =    -13.62863  eV     2   --> B_2  D_4  S_4  
     e( 52 - 52) =    -13.59702  eV     1   --> B_2  D_4  S_4  
     e( 53 - 54) =    -13.52884  eV     2   --> A_2  D_2  S_2  
     e( 53 - 54) =    -13.52884  eV     2   --> B_2  D_4  S_4  
     e( 55 - 55) =     -6.45185  eV     1   --> A_1  D_1  S_1  
     e( 56 - 56) =     -6.18572  eV     1   --> A_1  D_1  S_1  
     e( 57 - 58) =     -6.10618  eV     2   --> A_1  D_1  S_1  
     e( 57 - 58) =     -6.10618  eV     2   --> B_1  D_3  S_3  
     e( 59 - 60) =     -5.94268  eV     2   --> A_1  D_1  S_1  
     e( 59 - 60) =     -5.94268  eV     2   --> B_1  D_3  S_3  
[...]
     e( 70 - 70) =     -5.04002  eV     1   --> A'             
     e( 71 - 71) =     -4.91435  eV     1   --> A'             
     e( 72 - 72) =     -4.84504  eV     1   --> A'             
     e( 73 - 73) =     -4.84471  eV     1   --> A'             
     e( 74 - 74) =     -4.84319  eV     1   --> A'             
     e( 75 - 75) =     -4.84286  eV     1   --> A'             
     e( 76 - 76) =     -4.52282  eV     1   --> A''            
     e( 77 - 77) =     -4.44569  eV     1   --> A''            
     e( 78 - 78) =     -4.25901  eV     1   --> A'             
     e( 79 - 79) =     -4.25872  eV     1   --> A'             
     e( 80 - 80) =     -4.09424  eV     1   --> A''            
     e( 81 - 81) =     -4.09392  eV     1   --> A''            
     e( 82 - 82) =     -4.08434  eV     1   --> A''            
     e( 83 - 83) =     -4.08402  eV     1   --> A''            
     e( 84 - 84) =     -3.96806  eV     1   --> A''            
     e( 85 - 85) =     -3.92647  eV     1   --> A''            
     e( 86 - 86) =     -3.92015  eV     1   --> A''            
     e( 87 - 87) =     -3.74583  eV     1   --> A''            
     e( 88 - 88) =     -3.74546  eV     1   --> A''            
     e( 89 - 90) =     -3.57279  eV     2   -->   2 A'             
     e( 91 - 92) =     -3.53500  eV     2   -->   2 A'             
     e( 93 - 93) =     -3.09075  eV     1   --> A'             
     e( 94 - 94) =     -3.09024  eV     1   --> A'             
     e( 95 - 95) =     -3.08356  eV     1   --> A'             
     e( 96 - 96) =     -3.05507  eV     1   --> A'             
     e( 97 - 97) =     -2.98955  eV     1   --> A''            
     e( 98 - 98) =     -2.91435  eV     1   --> A''            
     e( 99 - 99) =     -2.91415  eV     1   --> A''            
     e(100 -100) =     -2.91219  eV     1   --> A''            
     e(101 -101) =     -2.91204  eV     1   --> A''            
     e(102 -102) =     -2.89277  eV     1   --> A''            
     e(103 -103) =     -2.89262  eV     1   --> A''            
     e(104 -104) =     -2.41464  eV     1   --> A''            
     e(105 -105) =     -2.41300  eV     1   --> A''            
     e(106 -106) =     -2.41287  eV     1   --> A''            
     e(107 -107) =     -2.39314  eV     1   --> A''            
     e(108 -108) =     -2.35707  eV     1   --> A'             
     e(109 -109) =     -1.73358  eV     1   --> A'             
     e(110 -110) =     -1.62706  eV     1   --> A'             
     e(111 -111) =     -1.61144  eV     1   --> A'             
     e(112 -112) =     -1.44673  eV     1   --> A'             
     e(113 -113) =     -1.44633  eV     1   --> A'             
     e(114 -114) =     -1.43857  eV     1   --> A'             
     e(115 -115) =     -1.43820  eV     1   --> A'             
     e(116 -116) =     -1.20770  eV     1   --> A'             
     e(117 -117) =     -1.20724  eV     1   --> A'             
     e(118 -118) =      0.70061  eV     1   --> A'             
     e(119 -119) =      0.70116  eV     1   --> A'             
     e(120 -120) =      0.94169  eV     1   --> A'             
     e(121 -121) =      0.94195  eV     1   --> A'             
     e(122 -122) =      0.96258  eV     1   --> A'             
     e(123 -123) =      0.96281  eV     1   --> A'             
     e(124 -124) =      0.96371  eV     1   --> A'             
     e(125 -125) =      0.96399  eV     1   --> A'             
     e(126 -126) =      1.03161  eV     1   --> A'             
     e(127 -127) =      1.13013  eV     1   --> A''            
     e(128 -128) =      1.13075  eV     1   --> A''            
     e(129 -129) =      1.18433  eV     1   --> A'             
     e(130 -130) =      1.19497  eV     1   --> A'             
     e(131 -131) =      1.22866  eV     1   --> A'             
     e(132 -132) =      1.22920  eV     1   --> A'             
     e(133 -133) =      1.24613  eV     1   --> A''            
     e(134 -134) =      1.27602  eV     1   --> A''            
     e(135 -135) =      1.42130  eV     1   --> A'             
     e(136 -136) =      1.42768  eV     1   --> A'             
     e(137 -137) =      1.42813  eV     1   --> A'             
     e(138 -138) =      1.44619  eV     1   --> A'             
     e(139 -139) =      1.44667  eV     1   --> A'             
     e(140 -140) =      1.91289  eV     1   --> A''            
     e(141 -141) =      1.91319  eV     1   --> A''            
     e(142 -142) =      1.92693  eV     1   --> A''            
     e(143 -143) =      1.92712  eV     1   --> A''            
     e(144 -144) =      1.96907  eV     1   --> A''            
     e(145 -145) =      1.96924  eV     1   --> A''            
     e(146 -146) =      2.23454  eV     1   --> A''            
     e(147 -147) =      2.60224  eV     1   --> A''            
     e(148 -148) =      2.63889  eV     1   --> A''            
     e(149 -149) =      2.76106  eV     1   --> A''            
     e(150 -150) =      2.76134  eV     1   --> A''            
     e(151 -151) =      2.78232  eV     1   --> A''            
     e(152 -152) =      2.78261  eV     1   --> A''            
     e(153 -153) =      2.82048  eV     1   --> A''            
     e(154 -155) =      3.68037  eV     2   -->   2 A'             
     e(156 -157) =      3.90838  eV     2   -->   2 A''            
     e(158 -158) =      3.98406  eV     1   --> A'             
     e(159 -160) =      4.15665  eV     2   -->   2 A'             
     e(161 -161) =      4.51491  eV     1   --> A'             
     e(162 -162) =      4.59442  eV     1   --> A'             
     e(163 -163) =      4.73174  eV     1   --> A''            
     e(164 -164) =      4.76210  eV     1   --> A'             
     e(165 -165) =      4.76226  eV     1   --> A'             
     e(166 -166) =      4.81439  eV     1   --> A''            
     e(167 -167) =      4.85180  eV     1   --> A'             
     e(168 -168) =      4.85196  eV     1   --> A'             
     e(169 -169) =      4.98372  eV     1   --> A'             
     e(170 -170) =      4.98395  eV     1   --> A'             
     e(171 -172) =      5.02370  eV     2   -->   2 A''            
     e(173 -173) =      5.03214  eV     1   --> A'             
     e(174 -174) =      5.11647  eV     1   --> A'             
     e(175 -175) =      5.63715  eV     1   --> A'             
     e(176 -176) =      5.81771  eV     1   --> A''            
     e(177 -177) =      5.85766  eV     1   --> A''            
     e(178 -178) =      5.89702  eV     1   --> A''            
     e(179 -179) =      5.98937  eV     1   --> A'             
     e(180 -180) =      5.98949  eV     1   --> A'             
     e(181 -181) =      6.01328  eV     1   --> A'             
     e(182 -182) =      6.01342  eV     1   --> A'             
     e(183 -183) =      6.05595  eV     1   --> A'             
     e(184 -184) =      6.05609  eV     1   --> A'             
     e(185 -185) =      6.17952  eV     1   --> A'             
     e(186 -187) =      6.20090  eV     2   -->   2 A''            
     e(188 -188) =      6.22797  eV     1   --> A'             
     e(189 -189) =      6.25656  eV     1   --> A''            

 **************************************************************************

 **************************************************************************

                    xk=(   0.00000,   0.57735,   0.00000  )

     point group C_2v (mm2) 
     there are  4 classes
     the character table:

       E     C2    s_v   s_v' 
A_1    1.00  1.00  1.00  1.00
A_2    1.00  1.00 -1.00 -1.00
B_1    1.00 -1.00  1.00 -1.00
B_2    1.00 -1.00 -1.00  1.00

     the symmetry operations in each class and the name of the first element:

     E        1
                                                                 
     C2       2
                                                                 
     s_v      3
                                                                 
     s_v'     4
                                                                 

     Band symmetry, C_2v (mm2)  point group:

     e(  1 -  1) =    -56.69332  eV     1   --> A_1  D_1  S_1  
     e(  2 -  2) =    -56.69222  eV     1   --> A_1  D_1  S_1  
     e(  3 -  4) =    -56.68564  eV     2   --> A_1  D_1  S_1  
     e(  3 -  4) =    -56.68564  eV     2   --> B_1  D_3  S_3  
     e(  5 -  5) =    -56.67975  eV     1   --> A_1  D_1  S_1  
     e(  6 -  6) =    -56.67926  eV     1   --> A_1  D_1  S_1  
     e(  7 -  8) =    -56.67850  eV     2   -->   2 B_1  D_3  S_3  
     e(  9 -  9) =    -56.67571  eV     1   --> A_1  D_1  S_1  
     e( 10 - 10) =    -32.88599  eV     1   --> A_1  D_1  S_1  
     e( 11 - 11) =    -32.85732  eV     1   --> B_1  D_3  S_3  
     e( 12 - 12) =    -32.85709  eV     1   --> A_1  D_1  S_1  
     e( 13 - 13) =    -32.85602  eV     1   --> A_1  D_1  S_1  
     e( 14 - 14) =    -32.85579  eV     1   --> B_1  D_3  S_3  
     e( 15 - 15) =    -32.78842  eV     1   --> A_1  D_1  S_1  
     e( 16 - 16) =    -32.78829  eV     1   --> B_1  D_3  S_3  
     e( 17 - 17) =    -32.73857  eV     1   --> B_2  D_4  S_4  
     e( 18 - 18) =    -32.73740  eV     1   --> B_2  D_4  S_4  
     e( 19 - 19) =    -32.73473  eV     1   --> A_1  D_1  S_1  
     e( 20 - 20) =    -32.73452  eV     1   --> B_1  D_3  S_3  
     e( 21 - 21) =    -32.73345  eV     1   --> B_1  D_3  S_3  
     e( 22 - 22) =    -32.73327  eV     1   --> A_1  D_1  S_1  
     e( 23 - 24) =    -32.71920  eV     2   --> A_2  D_2  S_2  
     e( 23 - 24) =    -32.71920  eV     2   --> B_2  D_4  S_4  
     e( 25 - 25) =    -32.71148  eV     1   --> A_1  D_1  S_1  
     e( 26 - 26) =    -32.71029  eV     1   --> A_1  D_1  S_1  
     e( 27 - 27) =    -32.70665  eV     1   --> B_1  D_3  S_3  
     e( 28 - 28) =    -32.70096  eV     1   --> B_2  D_4  S_4  
     e( 29 - 29) =    -32.70061  eV     1   --> B_2  D_4  S_4  
     e( 30 - 31) =    -32.69977  eV     2   -->   2 A_2  D_2  S_2  
     e( 32 - 32) =    -32.69748  eV     1   --> B_2  D_4  S_4  
     e( 33 - 33) =    -32.69443  eV     1   --> B_1  D_3  S_3  
     e( 34 - 34) =    -32.69411  eV     1   --> A_1  D_1  S_1  
     e( 35 - 35) =    -32.66419  eV     1   --> B_1  D_3  S_3  
     e( 36 - 36) =    -32.66281  eV     1   --> B_1  D_3  S_3  
     e( 37 - 37) =    -14.83861  eV     1   --> A_1  D_1  S_1  
     e( 38 - 38) =    -14.83814  eV     1   --> A_1  D_1  S_1  
     e( 39 - 40) =    -14.36247  eV     2   --> A_1  D_1  S_1  
     e( 39 - 40) =    -14.36247  eV     2   --> B_1  D_3  S_3  
     e( 41 - 41) =    -14.04405  eV     1   --> B_2  D_4  S_4  
     e( 42 - 42) =    -14.04356  eV     1   --> B_2  D_4  S_4  
     e( 43 - 44) =    -13.82612  eV     2   --> A_2  D_2  S_2  
     e( 43 - 44) =    -13.82612  eV     2   --> B_2  D_4  S_4  
     e( 45 - 45) =    -13.81348  eV     1   --> B_1  D_3  S_3  
     e( 46 - 46) =    -13.81333  eV     1   --> A_1  D_1  S_1  
     e( 47 - 47) =    -13.81287  eV     1   --> A_1  D_1  S_1  
     e( 48 - 48) =    -13.81270  eV     1   --> B_1  D_3  S_3  
     e( 49 - 49) =    -13.80093  eV     1   --> A_1  D_1  S_1  
     e( 50 - 50) =    -13.57981  eV     1   --> B_2  D_4  S_4  
     e( 51 - 51) =    -13.57565  eV     1   --> A_2  D_2  S_2  
     e( 52 - 52) =    -13.57548  eV     1   --> B_2  D_4  S_4  
     e( 53 - 53) =    -13.57496  eV     1   --> B_2  D_4  S_4  
     e( 54 - 54) =    -13.57485  eV     1   --> A_2  D_2  S_2  
     e( 55 - 55) =     -6.51578  eV     1   --> A_1  D_1  S_1  
     e( 56 - 57) =     -6.06950  eV     2   --> A_1  D_1  S_1  
     e( 56 - 57) =     -6.06950  eV     2   --> B_1  D_3  S_3  
     e( 58 - 59) =     -6.06912  eV     2   --> A_1  D_1  S_1  
     e( 58 - 59) =     -6.06912  eV     2   --> B_1  D_3  S_3  
     e( 60 - 60) =     -6.00370  eV     1   --> A_1  D_1  S_1  
     e( 61 - 61) =     -6.00332  eV     1   --> A_1  D_1  S_1  
     e( 62 - 62) =     -5.59449  eV     1   --> B_2  D_4  S_4  
     e( 63 - 64) =     -5.56676  eV     2   --> A_1  D_1  S_1  
     e( 63 - 64) =     -5.56676  eV     2   --> B_1  D_3  S_3  
     e( 65 - 66) =     -5.54238  eV     2   --> A_2  D_2  S_2  
     e( 65 - 66) =     -5.54238  eV     2   --> B_2  D_4  S_4  
     e( 67 - 68) =     -5.54203  eV     2   --> A_2  D_2  S_2  
     e( 67 - 68) =     -5.54203  eV     2   --> B_2  D_4  S_4  
     e( 69 - 70) =     -5.05199  eV     2   --> A_1  D_1  S_1  
     e( 69 - 70) =     -5.05199  eV     2   --> B_1  D_3  S_3  
     e( 71 - 71) =     -4.91432  eV     1   --> A_1  D_1  S_1  
     e( 72 - 72) =     -4.84434  eV     1   --> B_1  D_3  S_3  
     e( 73 - 73) =     -4.84421  eV     1   --> A_1  D_1  S_1  
     e( 74 - 74) =     -4.84387  eV     1   --> A_1  D_1  S_1  
     e( 75 - 75) =     -4.84376  eV     1   --> B_1  D_3  S_3  
     e( 76 - 77) =     -4.48435  eV     2   --> A_2  D_2  S_2  
     e( 76 - 77) =     -4.48435  eV     2   --> B_2  D_4  S_4  
     e( 78 - 78) =     -4.25823  eV     1   --> A_1  D_1  S_1  
     e( 79 - 79) =     -4.25793  eV     1   --> A_1  D_1  S_1  
     e( 80 - 81) =     -4.08957  eV     2   --> A_2  D_2  S_2  
     e( 80 - 81) =     -4.08957  eV     2   --> B_2  D_4  S_4  
     e( 82 - 83) =     -4.08922  eV     2   --> A_2  D_2  S_2  
     e( 82 - 83) =     -4.08922  eV     2   --> B_2  D_4  S_4  
     e( 84 - 85) =     -3.94837  eV     2   --> A_2  D_2  S_2  
     e( 84 - 85) =     -3.94837  eV     2   --> B_2  D_4  S_4  
     e( 86 - 86) =     -3.91955  eV     1   --> A_2  D_2  S_2  
     e( 87 - 87) =     -3.74529  eV     1   --> B_2  D_4  S_4  
     e( 88 - 88) =     -3.74492  eV     1   --> B_2  D_4  S_4  
     e( 89 - 90) =     -3.55469  eV     2   --> A_1  D_1  S_1  
     e( 89 - 90) =     -3.55469  eV     2   --> B_1  D_3  S_3  
     e( 91 - 92) =     -3.55441  eV     2   --> A_1  D_1  S_1  
     e( 91 - 92) =     -3.55441  eV     2   --> B_1  D_3  S_3  
     e( 93 - 93) =     -3.09099  eV     1   --> B_1  D_3  S_3  
     e( 94 - 94) =     -3.09048  eV     1   --> B_1  D_3  S_3  
     e( 95 - 96) =     -3.06883  eV     2   --> A_1  D_1  S_1  
     e( 95 - 96) =     -3.06883  eV     2   --> B_1  D_3  S_3  
     e( 97 - 97) =     -2.98953  eV     1   --> B_2  D_4  S_4  
     e( 98 - 98) =     -2.91215  eV     1   --> A_2  D_2  S_2  
     e( 99 - 99) =     -2.91195  eV     1   --> A_2  D_2  S_2  
     e(100 -101) =     -2.90321  eV     2   --> A_2  D_2  S_2  
     e(100 -101) =     -2.90321  eV     2   --> B_2  D_4  S_4  
     e(102 -102) =     -2.90277  eV     1   --> B_2  D_4  S_4  
     e(103 -103) =     -2.90266  eV     1   --> A_2  D_2  S_2  
     e(104 -104) =     -2.41413  eV     1   --> B_2  D_4  S_4  
     e(105 -105) =     -2.41402  eV     1   --> B_2  D_4  S_4  
     e(106 -107) =     -2.40382  eV     2   --> A_2  D_2  S_2  
     e(106 -107) =     -2.40382  eV     2   --> B_2  D_4  S_4  
     e(108 -108) =     -2.35421  eV     1   --> B_1  D_3  S_3  
     e(109 -109) =     -1.73467  eV     1   --> A_1  D_1  S_1  
     e(110 -111) =     -1.62197  eV     2   --> A_1  D_1  S_1  
     e(110 -111) =     -1.62197  eV     2   --> B_1  D_3  S_3  
     e(112 -112) =     -1.44344  eV     1   --> B_1  D_3  S_3  
     e(113 -113) =     -1.44319  eV     1   --> A_1  D_1  S_1  
     e(114 -114) =     -1.44303  eV     1   --> A_1  D_1  S_1  
     e(115 -115) =     -1.44283  eV     1   --> B_1  D_3  S_3  
     e(116 -116) =     -1.20622  eV     1   --> A_1  D_1  S_1  
     e(117 -117) =     -1.20576  eV     1   --> A_1  D_1  S_1  
     e(118 -119) =      0.69867  eV     2   --> A_1  D_1  S_1  
     e(118 -119) =      0.69867  eV     2   --> B_1  D_3  S_3  
     e(120 -120) =      0.94260  eV     1   --> A_1  D_1  S_1  
     e(121 -121) =      0.94287  eV     1   --> A_1  D_1  S_1  
     e(122 -124) =      0.96221  eV     3   --> A_1  D_1  S_1  
     e(122 -124) =      0.96221  eV     3   -->   2 B_1  D_3  S_3  
     e(125 -125) =      0.96269  eV     1   --> A_1  D_1  S_1  
     e(126 -126) =      1.03449  eV     1   --> B_1  D_3  S_3  
     e(127 -127) =      1.13231  eV     1   --> B_2  D_4  S_4  
     e(128 -128) =      1.13293  eV     1   --> B_2  D_4  S_4  
     e(129 -130) =      1.18859  eV     2   --> A_1  D_1  S_1  
     e(129 -130) =      1.18859  eV     2   --> B_1  D_3  S_3  
     e(131 -131) =      1.22855  eV     1   --> B_1  D_3  S_3  
     e(132 -132) =      1.22910  eV     1   --> B_1  D_3  S_3  
     e(133 -134) =      1.25965  eV     2   --> A_2  D_2  S_2  
     e(133 -134) =      1.25965  eV     2   --> B_2  D_4  S_4  
     e(135 -135) =      1.42132  eV     1   --> A_1  D_1  S_1  
     e(136 -136) =      1.43535  eV     1   --> B_1  D_3  S_3  
     e(137 -137) =      1.43570  eV     1   --> A_1  D_1  S_1  
     e(138 -138) =      1.43605  eV     1   --> A_1  D_1  S_1  
     e(139 -139) =      1.43640  eV     1   --> B_1  D_3  S_3  
     e(140 -140) =      1.91254  eV     1   --> A_2  D_2  S_2  
     e(141 -141) =      1.91284  eV     1   --> A_2  D_2  S_2  
     e(142 -142) =      1.94565  eV     1   --> A_2  D_2  S_2  
     e(143 -143) =      1.94578  eV     1   --> B_2  D_4  S_4  
     e(144 -144) =      1.94623  eV     1   --> B_2  D_4  S_4  
     e(145 -145) =      1.94644  eV     1   --> A_2  D_2  S_2  
     e(146 -146) =      2.23440  eV     1   --> B_2  D_4  S_4  
     e(147 -148) =      2.61984  eV     2   --> A_2  D_2  S_2  
     e(147 -148) =      2.61984  eV     2   --> B_2  D_4  S_4  
     e(149 -149) =      2.77079  eV     1   --> B_2  D_4  S_4  
     e(150 -150) =      2.77104  eV     1   --> A_2  D_2  S_2  
     e(151 -151) =      2.77126  eV     1   --> A_2  D_2  S_2  
     e(152 -152) =      2.77159  eV     1   --> B_2  D_4  S_4  
     e(153 -153) =      2.82249  eV     1   --> A_2  D_2  S_2  
     e(154 -155) =      3.67995  eV     2   -->   2 A_1  D_1  S_1  
     e(156 -157) =      3.90802  eV     2   -->   2 B_2  D_4  S_4  
     e(158 -158) =      3.98346  eV     1   --> A_1  D_1  S_1  
     e(159 -160) =      4.15616  eV     2   -->   2 A_1  D_1  S_1  
     e(161 -162) =      4.55441  eV     2   --> A_1  D_1  S_1  
     e(161 -162) =      4.55441  eV     2   --> B_1  D_3  S_3  
     e(163 -164) =      4.77278  eV     2   --> A_2  D_2  S_2  
     e(163 -164) =      4.77278  eV     2   --> B_2  D_4  S_4  
     e(165 -165) =      4.80632  eV     1   --> A_1  D_1  S_1  
     e(166 -166) =      4.80644  eV     1   --> B_1  D_3  S_3  
     e(167 -167) =      4.80660  eV     1   --> B_1  D_3  S_3  
     e(168 -168) =      4.80677  eV     1   --> A_1  D_1  S_1  
     e(169 -169) =      4.98287  eV     1   --> A_1  D_1  S_1  
     e(170 -170) =      4.98310  eV     1   --> A_1  D_1  S_1  
     e(171 -172) =      5.02334  eV     2   -->   2 B_2  D_4  S_4  
     e(173 -174) =      5.07397  eV     2   --> A_1  D_1  S_1  
     e(173 -174) =      5.07397  eV     2   --> B_1  D_3  S_3  
     e(175 -175) =      5.63597  eV     1   --> A_1  D_1  S_1  
     e(176 -176) =      5.85552  eV     1   --> B_2  D_4  S_4  
     e(177 -178) =      5.85711  eV     2   --> A_2  D_2  S_2  
     e(177 -178) =      5.85711  eV     2   --> B_2  D_4  S_4  
     e(179 -179) =      5.98902  eV     1   --> A_1  D_1  S_1  
     e(180 -180) =      5.98914  eV     1   --> A_1  D_1  S_1  
     e(181 -184) =      6.03472  eV     4   -->   2 A_1  D_1  S_1  
     e(181 -184) =      6.03472  eV     4   -->   2 B_1  D_3  S_3  
     e(185 -186) =      6.20632  eV     2   --> A_1  D_1  S_1  
     e(185 -186) =      6.20632  eV     2   --> B_1  D_3  S_3  
     e(187 -189) =      6.22868  eV     3   -->   ?

 **************************************************************************
 
     BANDS        :   9m13.95s CPU  13m41.03s WALL

 
   This run was terminated on:  22:30:32   5Sep2020            

=------------------------------------------------------------------------------=
   JOB DONE.
=------------------------------------------------------------------------------=
