
     Program PWSCF v.6.6 starts on  5Oct2020 at  0: 0:17 

     This program is part of the open-source Quantum ESPRESSO suite
     for quantum simulation of materials; please cite
         "P. Giannozzi et al., J. Phys.:Condens. Matter 21 395502 (2009);
         "P. Giannozzi et al., J. Phys.:Condens. Matter 29 465901 (2017);
          URL http://www.quantum-espresso.org", 
     in publications or presentations arising from this work. More details at
     http://www.quantum-espresso.org/quote

     Parallel version (MPI), running on    44 processors

     MPI processes distributed on     1 nodes
     R & G space division:  proc/nbgrp/npool/nimage =      44
     Fft bands division:     nmany     =       1
     Reading input from nscf.in

     Current dimensions of program PWSCF are:
     Max number of different atomic species (ntypx) = 10
     Max number of k-points (npk) =  40000
     Max angular momentum in pseudopotentials (lmaxx) =  3

     Atomic positions and unit cell read from directory:
     ./outdir/nbse2.save/
     Atomic positions from file used, from input discarded
 
     file Nb.pbe-spn-kjpaw_psl.0.3.0.UPF: wavefunction(s)  4S 4P renormalized

     Subspace diagonalization in iterative solution of the eigenvalue problem:
     a serial algorithm will be used

 
     Parallelization info
     --------------------
     sticks:   dense  smooth     PW     G-vecs:    dense   smooth      PW
     Min         137      61     19                15229     4517     789
     Max         138      63     20                15240     4520     796
     Sum        6043    2713    847               670217   198795   34855
 


     bravais-lattice index     =            0
     lattice parameter (alat)  =      19.7529  a.u.
     unit-cell volume          =   11758.5137 (a.u.)^3
     number of atoms/cell      =           27
     number of atomic types    =            2
     number of electrons       =       225.00
     number of Kohn-Sham states=          189
     kinetic-energy cutoff     =      25.0000  Ry
     charge density cutoff     =     225.0000  Ry
     Exchange-correlation= SLA  PW   PBE  PBE
                           (   1   4   3   4   0   0   0)

     celldm(1)=  19.752929  celldm(2)=   0.000000  celldm(3)=   0.000000
     celldm(4)=   0.000000  celldm(5)=   0.000000  celldm(6)=   0.000000

     crystal axes: (cart. coord. in units of alat)
               a(1) = (   0.866025  -0.500000   0.000000 )  
               a(2) = (   0.000000   1.000000   0.000000 )  
               a(3) = (   0.000000   0.000000   1.761681 )  

     reciprocal axes: (cart. coord. in units 2 pi/alat)
               b(1) = (  1.154701  0.000000  0.000000 )  
               b(2) = (  0.577350  1.000000  0.000000 )  
               b(3) = (  0.000000  0.000000  0.567640 )  


     PseudoPot. # 1 for Nb read from file:
     ~/pseudo/Nb.pbe-spn-kjpaw_psl.0.3.0.UPF
     MD5 check sum: 411d72ad547312f8017e2943ceca08cc
     Pseudo is Projector augmented-wave + core cor, Zval = 13.0
     Generated using "atomic" code by A. Dal Corso v.5.0.99 svn rev. 10869
     Shape of augmentation charge: PSQ
     Using radial grid of 1227 points,  6 beta functions with: 
                l(1) =   0
                l(2) =   0
                l(3) =   1
                l(4) =   1
                l(5) =   2
                l(6) =   2
     Q(r) pseudized with 0 coefficients 


     PseudoPot. # 2 for Se read from file:
     ~/pseudo/Se_pbe_v1.uspp.F.UPF
     MD5 check sum: 1b3568f3a8ae88f9a2a0ad0698632c85
     Pseudo is Ultrasoft + core correction, Zval =  6.0
     Generated by new atomic code, or converted to UPF format
     Using radial grid of  877 points,  6 beta functions with: 
                l(1) =   0
                l(2) =   0
                l(3) =   1
                l(4) =   1
                l(5) =   2
                l(6) =   2
     Q(r) pseudized with  8 coefficients,  rinner =    1.300   1.300   1.300
                                                       1.300   1.300

     atomic species   valence    mass     pseudopotential
        Nb            13.00    92.90638     Nb( 1.00)
        Se             6.00    78.96000     Se( 1.00)

     No symmetry found



   Cartesian axes

     site n.     atom                  positions (alat units)
         1           Nb  tau(   1) = (   0.0935853   0.1620955   0.8808406  )
         2           Nb  tau(   2) = (   0.6788539   0.5000005   0.8808406  )
         3           Nb  tau(   3) = (   0.0935853   0.8379055   0.8808406  )
         4           Nb  tau(   4) = (   0.3781760   0.0000000   0.8808406  )
         5           Nb  tau(   5) = (   0.6769374  -0.1724900   0.8808406  )
         6           Nb  tau(   6) = (   0.6769374   0.1724900   0.8808406  )
         7           Nb  tau(   7) = (   0.1038364   0.5000000   0.8808406  )
         8           Nb  tau(   8) = (   0.3810945   0.3399250   0.8808406  )
         9           Nb  tau(   9) = (   0.3810945   0.6600750   0.8808406  )
        10           Se  tau(  10) = (   0.1915302   0.0000000   0.7164088  )
        11           Se  tau(  11) = (   0.7702603  -0.3341300   0.7164088  )
        12           Se  tau(  12) = (   0.7702603   0.3341300   0.7164088  )
        13           Se  tau(  13) = (   0.1915302   0.0000000   1.0452724  )
        14           Se  tau(  14) = (   0.7702603  -0.3341300   1.0452724  )
        15           Se  tau(  15) = (   0.7702603   0.3341300   1.0452724  )
        16           Se  tau(  16) = (   0.4808433  -0.1671550   0.7236933  )
        17           Se  tau(  17) = (   0.7703642   0.0000000   0.7236933  )
        18           Se  tau(  18) = (   0.4808433   0.1671550   0.7236933  )
        19           Se  tau(  19) = (   0.4808433  -0.1671550   1.0379878  )
        20           Se  tau(  20) = (   0.7703642   0.0000000   1.0379878  )
        21           Se  tau(  21) = (   0.4808433   0.1671550   1.0379878  )
        22           Se  tau(  22) = (   0.1909906   0.3308045   0.7193843  )
        23           Se  tau(  23) = (   0.4840450   0.4999995   0.7193843  )
        24           Se  tau(  24) = (   0.1909906   0.6691945   0.7193843  )
        25           Se  tau(  25) = (   0.1909906   0.3308045   1.0422969  )
        26           Se  tau(  26) = (   0.4840450   0.4999995   1.0422969  )
        27           Se  tau(  27) = (   0.1909906   0.6691945   1.0422969  )

     number of k points=   256  Gaussian smearing, width (Ry)=  0.0100

     Number of k-points >= 100: set verbosity='high' to print them.

     Dense  grid:   670217 G-vectors     FFT dimensions: (  96,  96, 180)

     Smooth grid:   198795 G-vectors     FFT dimensions: (  64,  64, 120)

     Estimated max dynamical RAM per process >      61.23 MB

     Estimated total dynamical RAM >       2.63 GB

     Check: negative core charge=   -0.000002

     The potential is recalculated from file :
     ./outdir/nbse2.save/charge-density


     negative rho (up, down):  1.146E-02 0.000E+00
     Starting wfcs are  162 randomized atomic wfcs +   27 random wfcs
     Checking if some PAW data can be deallocated... 

     Band Structure Calculation
     Davidson diagonalization with overlap
     c_bands:  1 eigenvalues not converged
     c_bands:  1 eigenvalues not converged
     c_bands:  1 eigenvalues not converged
     c_bands:  1 eigenvalues not converged
     c_bands:  1 eigenvalues not converged
     c_bands:  1 eigenvalues not converged
     c_bands:  1 eigenvalues not converged
     c_bands:  1 eigenvalues not converged
     c_bands:  1 eigenvalues not converged
     c_bands:  1 eigenvalues not converged
     c_bands:  1 eigenvalues not converged
     c_bands:  1 eigenvalues not converged
     c_bands:  1 eigenvalues not converged
     c_bands:  1 eigenvalues not converged
     c_bands:  1 eigenvalues not converged
     c_bands:  1 eigenvalues not converged
     c_bands:  1 eigenvalues not converged
     c_bands:  1 eigenvalues not converged
     c_bands:  1 eigenvalues not converged
     c_bands:  1 eigenvalues not converged
     c_bands:  1 eigenvalues not converged
     c_bands:  1 eigenvalues not converged
     c_bands:  1 eigenvalues not converged
     c_bands:  1 eigenvalues not converged
     c_bands:  1 eigenvalues not converged
     c_bands:  1 eigenvalues not converged
     c_bands:  1 eigenvalues not converged
     c_bands:  1 eigenvalues not converged
     c_bands:  1 eigenvalues not converged
     c_bands:  1 eigenvalues not converged
     c_bands:  1 eigenvalues not converged
     c_bands:  1 eigenvalues not converged
     c_bands:  1 eigenvalues not converged
     c_bands:  1 eigenvalues not converged
     c_bands:  1 eigenvalues not converged
     c_bands:  1 eigenvalues not converged
     c_bands:  1 eigenvalues not converged
     c_bands:  1 eigenvalues not converged
     c_bands:  1 eigenvalues not converged
     c_bands:  1 eigenvalues not converged
     c_bands:  1 eigenvalues not converged
     c_bands:  1 eigenvalues not converged
     c_bands:  1 eigenvalues not converged
     c_bands:  1 eigenvalues not converged
     c_bands:  1 eigenvalues not converged

     ethr =  4.44E-12,  avg # of iterations = 93.8

     total cpu time spent up to now is     8609.2 secs

     End of band structure calculation

     Number of k-points >= 100: set verbosity='high' to print the bands.

     the Fermi energy is    -0.4633 ev
     (compare with:    -0.4730 eV, computed in scf)

     Writing output data file ./outdir/nbse2.save/
 
     init_run     :      1.58s CPU      2.45s WALL (       1 calls)
     electrons    :   8010.37s CPU   8603.56s WALL (       1 calls)

     Called by init_run:
     wfcinit      :      0.00s CPU      0.00s WALL (       1 calls)
     potinit      :      0.34s CPU      0.48s WALL (       1 calls)
     hinit0       :      0.53s CPU      0.67s WALL (       1 calls)

     Called by electrons:
     c_bands      :   8010.32s CPU   8603.51s WALL (       1 calls)
     v_of_rho     :      0.16s CPU      0.23s WALL (       1 calls)
     newd         :      0.22s CPU      0.52s WALL (       1 calls)
     PAW_pot      :      0.14s CPU      0.19s WALL (       1 calls)

     Called by c_bands:
     init_us_2    :      2.96s CPU      3.17s WALL (     256 calls)
     cegterg      :   7888.66s CPU   8467.79s WALL (    1310 calls)

     Called by *egterg:
     cdiaghg      :   1651.85s CPU   1663.45s WALL (   24281 calls)
     h_psi        :   2952.91s CPU   3397.32s WALL (   25591 calls)
     s_psi        :    513.85s CPU    521.27s WALL (   25591 calls)
     g_psi        :     11.04s CPU     11.32s WALL (   24025 calls)

     Called by h_psi:
     h_psi:calbec :    702.29s CPU    755.84s WALL (   25591 calls)
     vloc_psi     :   1679.26s CPU   2063.53s WALL (   25591 calls)
     add_vuspsi   :    523.14s CPU    529.24s WALL (   25591 calls)

     General routines
     calbec       :    702.01s CPU    755.69s WALL (   25591 calls)
     fft          :      0.16s CPU      0.28s WALL (      13 calls)
     ffts         :      0.00s CPU      0.00s WALL (       1 calls)
     fftw         :   1516.65s CPU   1885.18s WALL ( 4375726 calls)
     interpolate  :      0.01s CPU      0.01s WALL (       1 calls)
     davcio       :      0.39s CPU      2.72s WALL (     512 calls)
 
     Parallel routines
     fft_scatt_xy :    181.96s CPU    197.90s WALL ( 4375740 calls)
     fft_scatt_yz :    792.30s CPU   1095.40s WALL ( 4375740 calls)
 
     PWSCF        :      2h13m CPU      2h24m WALL

 
   This run was terminated on:   2:24:59   5Oct2020            

=------------------------------------------------------------------------------=
   JOB DONE.
=------------------------------------------------------------------------------=
