File written on 23Jan2021 at 23:53:19 

calc_only_A  :  F

begin real_lattice
   3.4557400   0.0000000   0.0000000
  -1.7278700   2.9927590   0.0000000
   0.0000000   0.0000000  23.3679000
end real_lattice

begin recip_lattice
   1.8181881   1.0497313   0.0000000
   0.0000000   2.0994625   0.0000000
   0.0000000   0.0000000   0.2688810
end recip_lattice

begin kpoints
   256
    0.00000000    0.00000000    0.00000000
    0.00000000    0.06250000    0.00000000
    0.00000000    0.12500000    0.00000000
    0.00000000    0.18750000    0.00000000
    0.00000000    0.25000000    0.00000000
    0.00000000    0.31250000    0.00000000
    0.00000000    0.37500000    0.00000000
    0.00000000    0.43750000    0.00000000
    0.00000000    0.50000000    0.00000000
    0.00000000    0.56250000    0.00000000
    0.00000000    0.62500000    0.00000000
    0.00000000    0.68750000    0.00000000
    0.00000000    0.75000000    0.00000000
    0.00000000    0.81250000    0.00000000
    0.00000000    0.87500000    0.00000000
    0.00000000    0.93750000    0.00000000
    0.06250000    0.00000000    0.00000000
    0.06250000    0.06250000    0.00000000
    0.06250000    0.12500000    0.00000000
    0.06250000    0.18750000    0.00000000
    0.06250000    0.25000000    0.00000000
    0.06250000    0.31250000    0.00000000
    0.06250000    0.37500000    0.00000000
    0.06250000    0.43750000    0.00000000
    0.06250000    0.50000000    0.00000000
    0.06250000    0.56250000    0.00000000
    0.06250000    0.62500000    0.00000000
    0.06250000    0.68750000    0.00000000
    0.06250000    0.75000000    0.00000000
    0.06250000    0.81250000    0.00000000
    0.06250000    0.87500000    0.00000000
    0.06250000    0.93750000    0.00000000
    0.12500000    0.00000000    0.00000000
    0.12500000    0.06250000    0.00000000
    0.12500000    0.12500000    0.00000000
    0.12500000    0.18750000    0.00000000
    0.12500000    0.25000000    0.00000000
    0.12500000    0.31250000    0.00000000
    0.12500000    0.37500000    0.00000000
    0.12500000    0.43750000    0.00000000
    0.12500000    0.50000000    0.00000000
    0.12500000    0.56250000    0.00000000
    0.12500000    0.62500000    0.00000000
    0.12500000    0.68750000    0.00000000
    0.12500000    0.75000000    0.00000000
    0.12500000    0.81250000    0.00000000
    0.12500000    0.87500000    0.00000000
    0.12500000    0.93750000    0.00000000
    0.18750000    0.00000000    0.00000000
    0.18750000    0.06250000    0.00000000
    0.18750000    0.12500000    0.00000000
    0.18750000    0.18750000    0.00000000
    0.18750000    0.25000000    0.00000000
    0.18750000    0.31250000    0.00000000
    0.18750000    0.37500000    0.00000000
    0.18750000    0.43750000    0.00000000
    0.18750000    0.50000000    0.00000000
    0.18750000    0.56250000    0.00000000
    0.18750000    0.62500000    0.00000000
    0.18750000    0.68750000    0.00000000
    0.18750000    0.75000000    0.00000000
    0.18750000    0.81250000    0.00000000
    0.18750000    0.87500000    0.00000000
    0.18750000    0.93750000    0.00000000
    0.25000000    0.00000000    0.00000000
    0.25000000    0.06250000    0.00000000
    0.25000000    0.12500000    0.00000000
    0.25000000    0.18750000    0.00000000
    0.25000000    0.25000000    0.00000000
    0.25000000    0.31250000    0.00000000
    0.25000000    0.37500000    0.00000000
    0.25000000    0.43750000    0.00000000
    0.25000000    0.50000000    0.00000000
    0.25000000    0.56250000    0.00000000
    0.25000000    0.62500000    0.00000000
    0.25000000    0.68750000    0.00000000
    0.25000000    0.75000000    0.00000000
    0.25000000    0.81250000    0.00000000
    0.25000000    0.87500000    0.00000000
    0.25000000    0.93750000    0.00000000
    0.31250000    0.00000000    0.00000000
    0.31250000    0.06250000    0.00000000
    0.31250000    0.12500000    0.00000000
    0.31250000    0.18750000    0.00000000
    0.31250000    0.25000000    0.00000000
    0.31250000    0.31250000    0.00000000
    0.31250000    0.37500000    0.00000000
    0.31250000    0.43750000    0.00000000
    0.31250000    0.50000000    0.00000000
    0.31250000    0.56250000    0.00000000
    0.31250000    0.62500000    0.00000000
    0.31250000    0.68750000    0.00000000
    0.31250000    0.75000000    0.00000000
    0.31250000    0.81250000    0.00000000
    0.31250000    0.87500000    0.00000000
    0.31250000    0.93750000    0.00000000
    0.37500000    0.00000000    0.00000000
    0.37500000    0.06250000    0.00000000
    0.37500000    0.12500000    0.00000000
    0.37500000    0.18750000    0.00000000
    0.37500000    0.25000000    0.00000000
    0.37500000    0.31250000    0.00000000
    0.37500000    0.37500000    0.00000000
    0.37500000    0.43750000    0.00000000
    0.37500000    0.50000000    0.00000000
    0.37500000    0.56250000    0.00000000
    0.37500000    0.62500000    0.00000000
    0.37500000    0.68750000    0.00000000
    0.37500000    0.75000000    0.00000000
    0.37500000    0.81250000    0.00000000
    0.37500000    0.87500000    0.00000000
    0.37500000    0.93750000    0.00000000
    0.43750000    0.00000000    0.00000000
    0.43750000    0.06250000    0.00000000
    0.43750000    0.12500000    0.00000000
    0.43750000    0.18750000    0.00000000
    0.43750000    0.25000000    0.00000000
    0.43750000    0.31250000    0.00000000
    0.43750000    0.37500000    0.00000000
    0.43750000    0.43750000    0.00000000
    0.43750000    0.50000000    0.00000000
    0.43750000    0.56250000    0.00000000
    0.43750000    0.62500000    0.00000000
    0.43750000    0.68750000    0.00000000
    0.43750000    0.75000000    0.00000000
    0.43750000    0.81250000    0.00000000
    0.43750000    0.87500000    0.00000000
    0.43750000    0.93750000    0.00000000
    0.50000000    0.00000000    0.00000000
    0.50000000    0.06250000    0.00000000
    0.50000000    0.12500000    0.00000000
    0.50000000    0.18750000    0.00000000
    0.50000000    0.25000000    0.00000000
    0.50000000    0.31250000    0.00000000
    0.50000000    0.37500000    0.00000000
    0.50000000    0.43750000    0.00000000
    0.50000000    0.50000000    0.00000000
    0.50000000    0.56250000    0.00000000
    0.50000000    0.62500000    0.00000000
    0.50000000    0.68750000    0.00000000
    0.50000000    0.75000000    0.00000000
    0.50000000    0.81250000    0.00000000
    0.50000000    0.87500000    0.00000000
    0.50000000    0.93750000    0.00000000
    0.56250000    0.00000000    0.00000000
    0.56250000    0.06250000    0.00000000
    0.56250000    0.12500000    0.00000000
    0.56250000    0.18750000    0.00000000
    0.56250000    0.25000000    0.00000000
    0.56250000    0.31250000    0.00000000
    0.56250000    0.37500000    0.00000000
    0.56250000    0.43750000    0.00000000
    0.56250000    0.50000000    0.00000000
    0.56250000    0.56250000    0.00000000
    0.56250000    0.62500000    0.00000000
    0.56250000    0.68750000    0.00000000
    0.56250000    0.75000000    0.00000000
    0.56250000    0.81250000    0.00000000
    0.56250000    0.87500000    0.00000000
    0.56250000    0.93750000    0.00000000
    0.62500000    0.00000000    0.00000000
    0.62500000    0.06250000    0.00000000
    0.62500000    0.12500000    0.00000000
    0.62500000    0.18750000    0.00000000
    0.62500000    0.25000000    0.00000000
    0.62500000    0.31250000    0.00000000
    0.62500000    0.37500000    0.00000000
    0.62500000    0.43750000    0.00000000
    0.62500000    0.50000000    0.00000000
    0.62500000    0.56250000    0.00000000
    0.62500000    0.62500000    0.00000000
    0.62500000    0.68750000    0.00000000
    0.62500000    0.75000000    0.00000000
    0.62500000    0.81250000    0.00000000
    0.62500000    0.87500000    0.00000000
    0.62500000    0.93750000    0.00000000
    0.68750000    0.00000000    0.00000000
    0.68750000    0.06250000    0.00000000
    0.68750000    0.12500000    0.00000000
    0.68750000    0.18750000    0.00000000
    0.68750000    0.25000000    0.00000000
    0.68750000    0.31250000    0.00000000
    0.68750000    0.37500000    0.00000000
    0.68750000    0.43750000    0.00000000
    0.68750000    0.50000000    0.00000000
    0.68750000    0.56250000    0.00000000
    0.68750000    0.62500000    0.00000000
    0.68750000    0.68750000    0.00000000
    0.68750000    0.75000000    0.00000000
    0.68750000    0.81250000    0.00000000
    0.68750000    0.87500000    0.00000000
    0.68750000    0.93750000    0.00000000
    0.75000000    0.00000000    0.00000000
    0.75000000    0.06250000    0.00000000
    0.75000000    0.12500000    0.00000000
    0.75000000    0.18750000    0.00000000
    0.75000000    0.25000000    0.00000000
    0.75000000    0.31250000    0.00000000
    0.75000000    0.37500000    0.00000000
    0.75000000    0.43750000    0.00000000
    0.75000000    0.50000000    0.00000000
    0.75000000    0.56250000    0.00000000
    0.75000000    0.62500000    0.00000000
    0.75000000    0.68750000    0.00000000
    0.75000000    0.75000000    0.00000000
    0.75000000    0.81250000    0.00000000
    0.75000000    0.87500000    0.00000000
    0.75000000    0.93750000    0.00000000
    0.81250000    0.00000000    0.00000000
    0.81250000    0.06250000    0.00000000
    0.81250000    0.12500000    0.00000000
    0.81250000    0.18750000    0.00000000
    0.81250000    0.25000000    0.00000000
    0.81250000    0.31250000    0.00000000
    0.81250000    0.37500000    0.00000000
    0.81250000    0.43750000    0.00000000
    0.81250000    0.50000000    0.00000000
    0.81250000    0.56250000    0.00000000
    0.81250000    0.62500000    0.00000000
    0.81250000    0.68750000    0.00000000
    0.81250000    0.75000000    0.00000000
    0.81250000    0.81250000    0.00000000
    0.81250000    0.87500000    0.00000000
    0.81250000    0.93750000    0.00000000
    0.87500000    0.00000000    0.00000000
    0.87500000    0.06250000    0.00000000
    0.87500000    0.12500000    0.00000000
    0.87500000    0.18750000    0.00000000
    0.87500000    0.25000000    0.00000000
    0.87500000    0.31250000    0.00000000
    0.87500000    0.37500000    0.00000000
    0.87500000    0.43750000    0.00000000
    0.87500000    0.50000000    0.00000000
    0.87500000    0.56250000    0.00000000
    0.87500000    0.62500000    0.00000000
    0.87500000    0.68750000    0.00000000
    0.87500000    0.75000000    0.00000000
    0.87500000    0.81250000    0.00000000
    0.87500000    0.87500000    0.00000000
    0.87500000    0.93750000    0.00000000
    0.93750000    0.00000000    0.00000000
    0.93750000    0.06250000    0.00000000
    0.93750000    0.12500000    0.00000000
    0.93750000    0.18750000    0.00000000
    0.93750000    0.25000000    0.00000000
    0.93750000    0.31250000    0.00000000
    0.93750000    0.37500000    0.00000000
    0.93750000    0.43750000    0.00000000
    0.93750000    0.50000000    0.00000000
    0.93750000    0.56250000    0.00000000
    0.93750000    0.62500000    0.00000000
    0.93750000    0.68750000    0.00000000
    0.93750000    0.75000000    0.00000000
    0.93750000    0.81250000    0.00000000
    0.93750000    0.87500000    0.00000000
    0.93750000    0.93750000    0.00000000
end kpoints

begin projections
    11
   0.00000    0.00000    0.50000     2  1  1
    0.0000000  0.0000000  1.0000000   1.0000000  0.0000000  0.0000000    1.00
   0.00000    0.00000    0.50000     2  2  1
    0.0000000  0.0000000  1.0000000   1.0000000  0.0000000  0.0000000    1.00
   0.00000    0.00000    0.50000     2  3  1
    0.0000000  0.0000000  1.0000000   1.0000000  0.0000000  0.0000000    1.00
   0.00000    0.00000    0.50000     2  4  1
    0.0000000  0.0000000  1.0000000   1.0000000  0.0000000  0.0000000    1.00
   0.00000    0.00000    0.50000     2  5  1
    0.0000000  0.0000000  1.0000000   1.0000000  0.0000000  0.0000000    1.00
   0.33333    0.66667    0.57265     1  1  1
    0.0000000  0.0000000  1.0000000   1.0000000  0.0000000  0.0000000    1.00
   0.33333    0.66667    0.57265     1  2  1
    0.0000000  0.0000000  1.0000000   1.0000000  0.0000000  0.0000000    1.00
   0.33333    0.66667    0.57265     1  3  1
    0.0000000  0.0000000  1.0000000   1.0000000  0.0000000  0.0000000    1.00
   0.33333    0.66667    0.42735     1  1  1
    0.0000000  0.0000000  1.0000000   1.0000000  0.0000000  0.0000000    1.00
   0.33333    0.66667    0.42735     1  2  1
    0.0000000  0.0000000  1.0000000   1.0000000  0.0000000  0.0000000    1.00
   0.33333    0.66667    0.42735     1  3  1
    0.0000000  0.0000000  1.0000000   1.0000000  0.0000000  0.0000000    1.00
end projections

begin nnkpts
   8
     1     2      0   0   0
     1    17      0   0   0
     1    16      0  -1   0
     1    32      0  -1   0
     1   241     -1   0   0
     1   242     -1   0   0
     1     1      0   0   1
     1     1      0   0  -1
     2     1      0   0   0
     2     3      0   0   0
     2    17      0   0   0
     2    18      0   0   0
     2   242     -1   0   0
     2   243     -1   0   0
     2     2      0   0   1
     2     2      0   0  -1
     3     2      0   0   0
     3     4      0   0   0
     3    18      0   0   0
     3    19      0   0   0
     3   243     -1   0   0
     3   244     -1   0   0
     3     3      0   0   1
     3     3      0   0  -1
     4     3      0   0   0
     4     5      0   0   0
     4    19      0   0   0
     4    20      0   0   0
     4   244     -1   0   0
     4   245     -1   0   0
     4     4      0   0   1
     4     4      0   0  -1
     5     4      0   0   0
     5     6      0   0   0
     5    20      0   0   0
     5    21      0   0   0
     5   245     -1   0   0
     5   246     -1   0   0
     5     5      0   0   1
     5     5      0   0  -1
     6     5      0   0   0
     6     7      0   0   0
     6    21      0   0   0
     6    22      0   0   0
     6   246     -1   0   0
     6   247     -1   0   0
     6     6      0   0   1
     6     6      0   0  -1
     7     6      0   0   0
     7     8      0   0   0
     7    22      0   0   0
     7    23      0   0   0
     7   247     -1   0   0
     7   248     -1   0   0
     7     7      0   0   1
     7     7      0   0  -1
     8     7      0   0   0
     8     9      0   0   0
     8    23      0   0   0
     8    24      0   0   0
     8   248     -1   0   0
     8   249     -1   0   0
     8     8      0   0   1
     8     8      0   0  -1
     9     8      0   0   0
     9    10      0   0   0
     9    24      0   0   0
     9    25      0   0   0
     9   249     -1   0   0
     9   250     -1   0   0
     9     9      0   0   1
     9     9      0   0  -1
    10     9      0   0   0
    10    11      0   0   0
    10    25      0   0   0
    10    26      0   0   0
    10   250     -1   0   0
    10   251     -1   0   0
    10    10      0   0   1
    10    10      0   0  -1
    11    10      0   0   0
    11    12      0   0   0
    11    26      0   0   0
    11    27      0   0   0
    11   251     -1   0   0
    11   252     -1   0   0
    11    11      0   0   1
    11    11      0   0  -1
    12    11      0   0   0
    12    13      0   0   0
    12    27      0   0   0
    12    28      0   0   0
    12   252     -1   0   0
    12   253     -1   0   0
    12    12      0   0   1
    12    12      0   0  -1
    13    12      0   0   0
    13    14      0   0   0
    13    28      0   0   0
    13    29      0   0   0
    13   253     -1   0   0
    13   254     -1   0   0
    13    13      0   0   1
    13    13      0   0  -1
    14    13      0   0   0
    14    15      0   0   0
    14    29      0   0   0
    14    30      0   0   0
    14   254     -1   0   0
    14   255     -1   0   0
    14    14      0   0   1
    14    14      0   0  -1
    15    14      0   0   0
    15    16      0   0   0
    15    30      0   0   0
    15    31      0   0   0
    15   255     -1   0   0
    15   256     -1   0   0
    15    15      0   0   1
    15    15      0   0  -1
    16    15      0   0   0
    16    31      0   0   0
    16    32      0   0   0
    16     1      0   1   0
    16   241     -1   1   0
    16   256     -1   0   0
    16    16      0   0   1
    16    16      0   0  -1
    17     1      0   0   0
    17     2      0   0   0
    17    18      0   0   0
    17    33      0   0   0
    17    32      0  -1   0
    17    48      0  -1   0
    17    17      0   0   1
    17    17      0   0  -1
    18     2      0   0   0
    18     3      0   0   0
    18    17      0   0   0
    18    19      0   0   0
    18    33      0   0   0
    18    34      0   0   0
    18    18      0   0   1
    18    18      0   0  -1
    19     3      0   0   0
    19     4      0   0   0
    19    18      0   0   0
    19    20      0   0   0
    19    34      0   0   0
    19    35      0   0   0
    19    19      0   0   1
    19    19      0   0  -1
    20     4      0   0   0
    20     5      0   0   0
    20    19      0   0   0
    20    21      0   0   0
    20    35      0   0   0
    20    36      0   0   0
    20    20      0   0   1
    20    20      0   0  -1
    21     5      0   0   0
    21     6      0   0   0
    21    20      0   0   0
    21    22      0   0   0
    21    36      0   0   0
    21    37      0   0   0
    21    21      0   0   1
    21    21      0   0  -1
    22     6      0   0   0
    22     7      0   0   0
    22    21      0   0   0
    22    23      0   0   0
    22    37      0   0   0
    22    38      0   0   0
    22    22      0   0   1
    22    22      0   0  -1
    23     7      0   0   0
    23     8      0   0   0
    23    22      0   0   0
    23    24      0   0   0
    23    38      0   0   0
    23    39      0   0   0
    23    23      0   0   1
    23    23      0   0  -1
    24     8      0   0   0
    24     9      0   0   0
    24    23      0   0   0
    24    25      0   0   0
    24    39      0   0   0
    24    40      0   0   0
    24    24      0   0   1
    24    24      0   0  -1
    25     9      0   0   0
    25    10      0   0   0
    25    24      0   0   0
    25    26      0   0   0
    25    40      0   0   0
    25    41      0   0   0
    25    25      0   0   1
    25    25      0   0  -1
    26    10      0   0   0
    26    11      0   0   0
    26    25      0   0   0
    26    27      0   0   0
    26    41      0   0   0
    26    42      0   0   0
    26    26      0   0   1
    26    26      0   0  -1
    27    11      0   0   0
    27    12      0   0   0
    27    26      0   0   0
    27    28      0   0   0
    27    42      0   0   0
    27    43      0   0   0
    27    27      0   0   1
    27    27      0   0  -1
    28    12      0   0   0
    28    13      0   0   0
    28    27      0   0   0
    28    29      0   0   0
    28    43      0   0   0
    28    44      0   0   0
    28    28      0   0   1
    28    28      0   0  -1
    29    13      0   0   0
    29    14      0   0   0
    29    28      0   0   0
    29    30      0   0   0
    29    44      0   0   0
    29    45      0   0   0
    29    29      0   0   1
    29    29      0   0  -1
    30    14      0   0   0
    30    15      0   0   0
    30    29      0   0   0
    30    31      0   0   0
    30    45      0   0   0
    30    46      0   0   0
    30    30      0   0   1
    30    30      0   0  -1
    31    15      0   0   0
    31    16      0   0   0
    31    30      0   0   0
    31    32      0   0   0
    31    46      0   0   0
    31    47      0   0   0
    31    31      0   0   1
    31    31      0   0  -1
    32    16      0   0   0
    32    31      0   0   0
    32    47      0   0   0
    32    48      0   0   0
    32     1      0   1   0
    32    17      0   1   0
    32    32      0   0   1
    32    32      0   0  -1
    33    17      0   0   0
    33    18      0   0   0
    33    34      0   0   0
    33    49      0   0   0
    33    48      0  -1   0
    33    64      0  -1   0
    33    33      0   0   1
    33    33      0   0  -1
    34    18      0   0   0
    34    19      0   0   0
    34    33      0   0   0
    34    35      0   0   0
    34    49      0   0   0
    34    50      0   0   0
    34    34      0   0   1
    34    34      0   0  -1
    35    19      0   0   0
    35    20      0   0   0
    35    34      0   0   0
    35    36      0   0   0
    35    50      0   0   0
    35    51      0   0   0
    35    35      0   0   1
    35    35      0   0  -1
    36    20      0   0   0
    36    21      0   0   0
    36    35      0   0   0
    36    37      0   0   0
    36    51      0   0   0
    36    52      0   0   0
    36    36      0   0   1
    36    36      0   0  -1
    37    21      0   0   0
    37    22      0   0   0
    37    36      0   0   0
    37    38      0   0   0
    37    52      0   0   0
    37    53      0   0   0
    37    37      0   0   1
    37    37      0   0  -1
    38    22      0   0   0
    38    23      0   0   0
    38    37      0   0   0
    38    39      0   0   0
    38    53      0   0   0
    38    54      0   0   0
    38    38      0   0   1
    38    38      0   0  -1
    39    23      0   0   0
    39    24      0   0   0
    39    38      0   0   0
    39    40      0   0   0
    39    54      0   0   0
    39    55      0   0   0
    39    39      0   0   1
    39    39      0   0  -1
    40    24      0   0   0
    40    25      0   0   0
    40    39      0   0   0
    40    41      0   0   0
    40    55      0   0   0
    40    56      0   0   0
    40    40      0   0   1
    40    40      0   0  -1
    41    25      0   0   0
    41    26      0   0   0
    41    40      0   0   0
    41    42      0   0   0
    41    56      0   0   0
    41    57      0   0   0
    41    41      0   0   1
    41    41      0   0  -1
    42    26      0   0   0
    42    27      0   0   0
    42    41      0   0   0
    42    43      0   0   0
    42    57      0   0   0
    42    58      0   0   0
    42    42      0   0   1
    42    42      0   0  -1
    43    27      0   0   0
    43    28      0   0   0
    43    42      0   0   0
    43    44      0   0   0
    43    58      0   0   0
    43    59      0   0   0
    43    43      0   0   1
    43    43      0   0  -1
    44    28      0   0   0
    44    29      0   0   0
    44    43      0   0   0
    44    45      0   0   0
    44    59      0   0   0
    44    60      0   0   0
    44    44      0   0   1
    44    44      0   0  -1
    45    29      0   0   0
    45    30      0   0   0
    45    44      0   0   0
    45    46      0   0   0
    45    60      0   0   0
    45    61      0   0   0
    45    45      0   0   1
    45    45      0   0  -1
    46    30      0   0   0
    46    31      0   0   0
    46    45      0   0   0
    46    47      0   0   0
    46    61      0   0   0
    46    62      0   0   0
    46    46      0   0   1
    46    46      0   0  -1
    47    31      0   0   0
    47    32      0   0   0
    47    46      0   0   0
    47    48      0   0   0
    47    62      0   0   0
    47    63      0   0   0
    47    47      0   0   1
    47    47      0   0  -1
    48    32      0   0   0
    48    47      0   0   0
    48    63      0   0   0
    48    64      0   0   0
    48    17      0   1   0
    48    33      0   1   0
    48    48      0   0   1
    48    48      0   0  -1
    49    33      0   0   0
    49    34      0   0   0
    49    50      0   0   0
    49    65      0   0   0
    49    64      0  -1   0
    49    80      0  -1   0
    49    49      0   0   1
    49    49      0   0  -1
    50    34      0   0   0
    50    35      0   0   0
    50    49      0   0   0
    50    51      0   0   0
    50    65      0   0   0
    50    66      0   0   0
    50    50      0   0   1
    50    50      0   0  -1
    51    35      0   0   0
    51    36      0   0   0
    51    50      0   0   0
    51    52      0   0   0
    51    66      0   0   0
    51    67      0   0   0
    51    51      0   0   1
    51    51      0   0  -1
    52    36      0   0   0
    52    37      0   0   0
    52    51      0   0   0
    52    53      0   0   0
    52    67      0   0   0
    52    68      0   0   0
    52    52      0   0   1
    52    52      0   0  -1
    53    37      0   0   0
    53    38      0   0   0
    53    52      0   0   0
    53    54      0   0   0
    53    68      0   0   0
    53    69      0   0   0
    53    53      0   0   1
    53    53      0   0  -1
    54    38      0   0   0
    54    39      0   0   0
    54    53      0   0   0
    54    55      0   0   0
    54    69      0   0   0
    54    70      0   0   0
    54    54      0   0   1
    54    54      0   0  -1
    55    39      0   0   0
    55    40      0   0   0
    55    54      0   0   0
    55    56      0   0   0
    55    70      0   0   0
    55    71      0   0   0
    55    55      0   0   1
    55    55      0   0  -1
    56    40      0   0   0
    56    41      0   0   0
    56    55      0   0   0
    56    57      0   0   0
    56    71      0   0   0
    56    72      0   0   0
    56    56      0   0   1
    56    56      0   0  -1
    57    41      0   0   0
    57    42      0   0   0
    57    56      0   0   0
    57    58      0   0   0
    57    72      0   0   0
    57    73      0   0   0
    57    57      0   0   1
    57    57      0   0  -1
    58    42      0   0   0
    58    43      0   0   0
    58    57      0   0   0
    58    59      0   0   0
    58    73      0   0   0
    58    74      0   0   0
    58    58      0   0   1
    58    58      0   0  -1
    59    43      0   0   0
    59    44      0   0   0
    59    58      0   0   0
    59    60      0   0   0
    59    74      0   0   0
    59    75      0   0   0
    59    59      0   0   1
    59    59      0   0  -1
    60    44      0   0   0
    60    45      0   0   0
    60    59      0   0   0
    60    61      0   0   0
    60    75      0   0   0
    60    76      0   0   0
    60    60      0   0   1
    60    60      0   0  -1
    61    45      0   0   0
    61    46      0   0   0
    61    60      0   0   0
    61    62      0   0   0
    61    76      0   0   0
    61    77      0   0   0
    61    61      0   0   1
    61    61      0   0  -1
    62    46      0   0   0
    62    47      0   0   0
    62    61      0   0   0
    62    63      0   0   0
    62    77      0   0   0
    62    78      0   0   0
    62    62      0   0   1
    62    62      0   0  -1
    63    47      0   0   0
    63    48      0   0   0
    63    62      0   0   0
    63    64      0   0   0
    63    78      0   0   0
    63    79      0   0   0
    63    63      0   0   1
    63    63      0   0  -1
    64    48      0   0   0
    64    63      0   0   0
    64    79      0   0   0
    64    80      0   0   0
    64    33      0   1   0
    64    49      0   1   0
    64    64      0   0   1
    64    64      0   0  -1
    65    49      0   0   0
    65    50      0   0   0
    65    66      0   0   0
    65    81      0   0   0
    65    80      0  -1   0
    65    96      0  -1   0
    65    65      0   0   1
    65    65      0   0  -1
    66    50      0   0   0
    66    51      0   0   0
    66    65      0   0   0
    66    67      0   0   0
    66    81      0   0   0
    66    82      0   0   0
    66    66      0   0   1
    66    66      0   0  -1
    67    51      0   0   0
    67    52      0   0   0
    67    66      0   0   0
    67    68      0   0   0
    67    82      0   0   0
    67    83      0   0   0
    67    67      0   0   1
    67    67      0   0  -1
    68    52      0   0   0
    68    53      0   0   0
    68    67      0   0   0
    68    69      0   0   0
    68    83      0   0   0
    68    84      0   0   0
    68    68      0   0   1
    68    68      0   0  -1
    69    53      0   0   0
    69    54      0   0   0
    69    68      0   0   0
    69    70      0   0   0
    69    84      0   0   0
    69    85      0   0   0
    69    69      0   0   1
    69    69      0   0  -1
    70    54      0   0   0
    70    55      0   0   0
    70    69      0   0   0
    70    71      0   0   0
    70    85      0   0   0
    70    86      0   0   0
    70    70      0   0   1
    70    70      0   0  -1
    71    55      0   0   0
    71    56      0   0   0
    71    70      0   0   0
    71    72      0   0   0
    71    86      0   0   0
    71    87      0   0   0
    71    71      0   0   1
    71    71      0   0  -1
    72    56      0   0   0
    72    57      0   0   0
    72    71      0   0   0
    72    73      0   0   0
    72    87      0   0   0
    72    88      0   0   0
    72    72      0   0   1
    72    72      0   0  -1
    73    57      0   0   0
    73    58      0   0   0
    73    72      0   0   0
    73    74      0   0   0
    73    88      0   0   0
    73    89      0   0   0
    73    73      0   0   1
    73    73      0   0  -1
    74    58      0   0   0
    74    59      0   0   0
    74    73      0   0   0
    74    75      0   0   0
    74    89      0   0   0
    74    90      0   0   0
    74    74      0   0   1
    74    74      0   0  -1
    75    59      0   0   0
    75    60      0   0   0
    75    74      0   0   0
    75    76      0   0   0
    75    90      0   0   0
    75    91      0   0   0
    75    75      0   0   1
    75    75      0   0  -1
    76    60      0   0   0
    76    61      0   0   0
    76    75      0   0   0
    76    77      0   0   0
    76    91      0   0   0
    76    92      0   0   0
    76    76      0   0   1
    76    76      0   0  -1
    77    61      0   0   0
    77    62      0   0   0
    77    76      0   0   0
    77    78      0   0   0
    77    92      0   0   0
    77    93      0   0   0
    77    77      0   0   1
    77    77      0   0  -1
    78    62      0   0   0
    78    63      0   0   0
    78    77      0   0   0
    78    79      0   0   0
    78    93      0   0   0
    78    94      0   0   0
    78    78      0   0   1
    78    78      0   0  -1
    79    63      0   0   0
    79    64      0   0   0
    79    78      0   0   0
    79    80      0   0   0
    79    94      0   0   0
    79    95      0   0   0
    79    79      0   0   1
    79    79      0   0  -1
    80    64      0   0   0
    80    79      0   0   0
    80    95      0   0   0
    80    96      0   0   0
    80    49      0   1   0
    80    65      0   1   0
    80    80      0   0   1
    80    80      0   0  -1
    81    65      0   0   0
    81    66      0   0   0
    81    82      0   0   0
    81    97      0   0   0
    81    96      0  -1   0
    81   112      0  -1   0
    81    81      0   0   1
    81    81      0   0  -1
    82    66      0   0   0
    82    67      0   0   0
    82    81      0   0   0
    82    83      0   0   0
    82    97      0   0   0
    82    98      0   0   0
    82    82      0   0   1
    82    82      0   0  -1
    83    67      0   0   0
    83    68      0   0   0
    83    82      0   0   0
    83    84      0   0   0
    83    98      0   0   0
    83    99      0   0   0
    83    83      0   0   1
    83    83      0   0  -1
    84    68      0   0   0
    84    69      0   0   0
    84    83      0   0   0
    84    85      0   0   0
    84    99      0   0   0
    84   100      0   0   0
    84    84      0   0   1
    84    84      0   0  -1
    85    69      0   0   0
    85    70      0   0   0
    85    84      0   0   0
    85    86      0   0   0
    85   100      0   0   0
    85   101      0   0   0
    85    85      0   0   1
    85    85      0   0  -1
    86    70      0   0   0
    86    71      0   0   0
    86    85      0   0   0
    86    87      0   0   0
    86   101      0   0   0
    86   102      0   0   0
    86    86      0   0   1
    86    86      0   0  -1
    87    71      0   0   0
    87    72      0   0   0
    87    86      0   0   0
    87    88      0   0   0
    87   102      0   0   0
    87   103      0   0   0
    87    87      0   0   1
    87    87      0   0  -1
    88    72      0   0   0
    88    73      0   0   0
    88    87      0   0   0
    88    89      0   0   0
    88   103      0   0   0
    88   104      0   0   0
    88    88      0   0   1
    88    88      0   0  -1
    89    73      0   0   0
    89    74      0   0   0
    89    88      0   0   0
    89    90      0   0   0
    89   104      0   0   0
    89   105      0   0   0
    89    89      0   0   1
    89    89      0   0  -1
    90    74      0   0   0
    90    75      0   0   0
    90    89      0   0   0
    90    91      0   0   0
    90   105      0   0   0
    90   106      0   0   0
    90    90      0   0   1
    90    90      0   0  -1
    91    75      0   0   0
    91    76      0   0   0
    91    90      0   0   0
    91    92      0   0   0
    91   106      0   0   0
    91   107      0   0   0
    91    91      0   0   1
    91    91      0   0  -1
    92    76      0   0   0
    92    77      0   0   0
    92    91      0   0   0
    92    93      0   0   0
    92   107      0   0   0
    92   108      0   0   0
    92    92      0   0   1
    92    92      0   0  -1
    93    77      0   0   0
    93    78      0   0   0
    93    92      0   0   0
    93    94      0   0   0
    93   108      0   0   0
    93   109      0   0   0
    93    93      0   0   1
    93    93      0   0  -1
    94    78      0   0   0
    94    79      0   0   0
    94    93      0   0   0
    94    95      0   0   0
    94   109      0   0   0
    94   110      0   0   0
    94    94      0   0   1
    94    94      0   0  -1
    95    79      0   0   0
    95    80      0   0   0
    95    94      0   0   0
    95    96      0   0   0
    95   110      0   0   0
    95   111      0   0   0
    95    95      0   0   1
    95    95      0   0  -1
    96    80      0   0   0
    96    95      0   0   0
    96   111      0   0   0
    96   112      0   0   0
    96    65      0   1   0
    96    81      0   1   0
    96    96      0   0   1
    96    96      0   0  -1
    97    81      0   0   0
    97    82      0   0   0
    97    98      0   0   0
    97   113      0   0   0
    97   112      0  -1   0
    97   128      0  -1   0
    97    97      0   0   1
    97    97      0   0  -1
    98    82      0   0   0
    98    83      0   0   0
    98    97      0   0   0
    98    99      0   0   0
    98   113      0   0   0
    98   114      0   0   0
    98    98      0   0   1
    98    98      0   0  -1
    99    83      0   0   0
    99    84      0   0   0
    99    98      0   0   0
    99   100      0   0   0
    99   114      0   0   0
    99   115      0   0   0
    99    99      0   0   1
    99    99      0   0  -1
   100    84      0   0   0
   100    85      0   0   0
   100    99      0   0   0
   100   101      0   0   0
   100   115      0   0   0
   100   116      0   0   0
   100   100      0   0   1
   100   100      0   0  -1
   101    85      0   0   0
   101    86      0   0   0
   101   100      0   0   0
   101   102      0   0   0
   101   116      0   0   0
   101   117      0   0   0
   101   101      0   0   1
   101   101      0   0  -1
   102    86      0   0   0
   102    87      0   0   0
   102   101      0   0   0
   102   103      0   0   0
   102   117      0   0   0
   102   118      0   0   0
   102   102      0   0   1
   102   102      0   0  -1
   103    87      0   0   0
   103    88      0   0   0
   103   102      0   0   0
   103   104      0   0   0
   103   118      0   0   0
   103   119      0   0   0
   103   103      0   0   1
   103   103      0   0  -1
   104    88      0   0   0
   104    89      0   0   0
   104   103      0   0   0
   104   105      0   0   0
   104   119      0   0   0
   104   120      0   0   0
   104   104      0   0   1
   104   104      0   0  -1
   105    89      0   0   0
   105    90      0   0   0
   105   104      0   0   0
   105   106      0   0   0
   105   120      0   0   0
   105   121      0   0   0
   105   105      0   0   1
   105   105      0   0  -1
   106    90      0   0   0
   106    91      0   0   0
   106   105      0   0   0
   106   107      0   0   0
   106   121      0   0   0
   106   122      0   0   0
   106   106      0   0   1
   106   106      0   0  -1
   107    91      0   0   0
   107    92      0   0   0
   107   106      0   0   0
   107   108      0   0   0
   107   122      0   0   0
   107   123      0   0   0
   107   107      0   0   1
   107   107      0   0  -1
   108    92      0   0   0
   108    93      0   0   0
   108   107      0   0   0
   108   109      0   0   0
   108   123      0   0   0
   108   124      0   0   0
   108   108      0   0   1
   108   108      0   0  -1
   109    93      0   0   0
   109    94      0   0   0
   109   108      0   0   0
   109   110      0   0   0
   109   124      0   0   0
   109   125      0   0   0
   109   109      0   0   1
   109   109      0   0  -1
   110    94      0   0   0
   110    95      0   0   0
   110   109      0   0   0
   110   111      0   0   0
   110   125      0   0   0
   110   126      0   0   0
   110   110      0   0   1
   110   110      0   0  -1
   111    95      0   0   0
   111    96      0   0   0
   111   110      0   0   0
   111   112      0   0   0
   111   126      0   0   0
   111   127      0   0   0
   111   111      0   0   1
   111   111      0   0  -1
   112    96      0   0   0
   112   111      0   0   0
   112   127      0   0   0
   112   128      0   0   0
   112    81      0   1   0
   112    97      0   1   0
   112   112      0   0   1
   112   112      0   0  -1
   113    97      0   0   0
   113    98      0   0   0
   113   114      0   0   0
   113   129      0   0   0
   113   128      0  -1   0
   113   144      0  -1   0
   113   113      0   0   1
   113   113      0   0  -1
   114    98      0   0   0
   114    99      0   0   0
   114   113      0   0   0
   114   115      0   0   0
   114   129      0   0   0
   114   130      0   0   0
   114   114      0   0   1
   114   114      0   0  -1
   115    99      0   0   0
   115   100      0   0   0
   115   114      0   0   0
   115   116      0   0   0
   115   130      0   0   0
   115   131      0   0   0
   115   115      0   0   1
   115   115      0   0  -1
   116   100      0   0   0
   116   101      0   0   0
   116   115      0   0   0
   116   117      0   0   0
   116   131      0   0   0
   116   132      0   0   0
   116   116      0   0   1
   116   116      0   0  -1
   117   101      0   0   0
   117   102      0   0   0
   117   116      0   0   0
   117   118      0   0   0
   117   132      0   0   0
   117   133      0   0   0
   117   117      0   0   1
   117   117      0   0  -1
   118   102      0   0   0
   118   103      0   0   0
   118   117      0   0   0
   118   119      0   0   0
   118   133      0   0   0
   118   134      0   0   0
   118   118      0   0   1
   118   118      0   0  -1
   119   103      0   0   0
   119   104      0   0   0
   119   118      0   0   0
   119   120      0   0   0
   119   134      0   0   0
   119   135      0   0   0
   119   119      0   0   1
   119   119      0   0  -1
   120   104      0   0   0
   120   105      0   0   0
   120   119      0   0   0
   120   121      0   0   0
   120   135      0   0   0
   120   136      0   0   0
   120   120      0   0   1
   120   120      0   0  -1
   121   105      0   0   0
   121   106      0   0   0
   121   120      0   0   0
   121   122      0   0   0
   121   136      0   0   0
   121   137      0   0   0
   121   121      0   0   1
   121   121      0   0  -1
   122   106      0   0   0
   122   107      0   0   0
   122   121      0   0   0
   122   123      0   0   0
   122   137      0   0   0
   122   138      0   0   0
   122   122      0   0   1
   122   122      0   0  -1
   123   107      0   0   0
   123   108      0   0   0
   123   122      0   0   0
   123   124      0   0   0
   123   138      0   0   0
   123   139      0   0   0
   123   123      0   0   1
   123   123      0   0  -1
   124   108      0   0   0
   124   109      0   0   0
   124   123      0   0   0
   124   125      0   0   0
   124   139      0   0   0
   124   140      0   0   0
   124   124      0   0   1
   124   124      0   0  -1
   125   109      0   0   0
   125   110      0   0   0
   125   124      0   0   0
   125   126      0   0   0
   125   140      0   0   0
   125   141      0   0   0
   125   125      0   0   1
   125   125      0   0  -1
   126   110      0   0   0
   126   111      0   0   0
   126   125      0   0   0
   126   127      0   0   0
   126   141      0   0   0
   126   142      0   0   0
   126   126      0   0   1
   126   126      0   0  -1
   127   111      0   0   0
   127   112      0   0   0
   127   126      0   0   0
   127   128      0   0   0
   127   142      0   0   0
   127   143      0   0   0
   127   127      0   0   1
   127   127      0   0  -1
   128   112      0   0   0
   128   127      0   0   0
   128   143      0   0   0
   128   144      0   0   0
   128    97      0   1   0
   128   113      0   1   0
   128   128      0   0   1
   128   128      0   0  -1
   129   113      0   0   0
   129   114      0   0   0
   129   130      0   0   0
   129   145      0   0   0
   129   144      0  -1   0
   129   160      0  -1   0
   129   129      0   0   1
   129   129      0   0  -1
   130   114      0   0   0
   130   115      0   0   0
   130   129      0   0   0
   130   131      0   0   0
   130   145      0   0   0
   130   146      0   0   0
   130   130      0   0   1
   130   130      0   0  -1
   131   115      0   0   0
   131   116      0   0   0
   131   130      0   0   0
   131   132      0   0   0
   131   146      0   0   0
   131   147      0   0   0
   131   131      0   0   1
   131   131      0   0  -1
   132   116      0   0   0
   132   117      0   0   0
   132   131      0   0   0
   132   133      0   0   0
   132   147      0   0   0
   132   148      0   0   0
   132   132      0   0   1
   132   132      0   0  -1
   133   117      0   0   0
   133   118      0   0   0
   133   132      0   0   0
   133   134      0   0   0
   133   148      0   0   0
   133   149      0   0   0
   133   133      0   0   1
   133   133      0   0  -1
   134   118      0   0   0
   134   119      0   0   0
   134   133      0   0   0
   134   135      0   0   0
   134   149      0   0   0
   134   150      0   0   0
   134   134      0   0   1
   134   134      0   0  -1
   135   119      0   0   0
   135   120      0   0   0
   135   134      0   0   0
   135   136      0   0   0
   135   150      0   0   0
   135   151      0   0   0
   135   135      0   0   1
   135   135      0   0  -1
   136   120      0   0   0
   136   121      0   0   0
   136   135      0   0   0
   136   137      0   0   0
   136   151      0   0   0
   136   152      0   0   0
   136   136      0   0   1
   136   136      0   0  -1
   137   121      0   0   0
   137   122      0   0   0
   137   136      0   0   0
   137   138      0   0   0
   137   152      0   0   0
   137   153      0   0   0
   137   137      0   0   1
   137   137      0   0  -1
   138   122      0   0   0
   138   123      0   0   0
   138   137      0   0   0
   138   139      0   0   0
   138   153      0   0   0
   138   154      0   0   0
   138   138      0   0   1
   138   138      0   0  -1
   139   123      0   0   0
   139   124      0   0   0
   139   138      0   0   0
   139   140      0   0   0
   139   154      0   0   0
   139   155      0   0   0
   139   139      0   0   1
   139   139      0   0  -1
   140   124      0   0   0
   140   125      0   0   0
   140   139      0   0   0
   140   141      0   0   0
   140   155      0   0   0
   140   156      0   0   0
   140   140      0   0   1
   140   140      0   0  -1
   141   125      0   0   0
   141   126      0   0   0
   141   140      0   0   0
   141   142      0   0   0
   141   156      0   0   0
   141   157      0   0   0
   141   141      0   0   1
   141   141      0   0  -1
   142   126      0   0   0
   142   127      0   0   0
   142   141      0   0   0
   142   143      0   0   0
   142   157      0   0   0
   142   158      0   0   0
   142   142      0   0   1
   142   142      0   0  -1
   143   127      0   0   0
   143   128      0   0   0
   143   142      0   0   0
   143   144      0   0   0
   143   158      0   0   0
   143   159      0   0   0
   143   143      0   0   1
   143   143      0   0  -1
   144   128      0   0   0
   144   143      0   0   0
   144   159      0   0   0
   144   160      0   0   0
   144   113      0   1   0
   144   129      0   1   0
   144   144      0   0   1
   144   144      0   0  -1
   145   129      0   0   0
   145   130      0   0   0
   145   146      0   0   0
   145   161      0   0   0
   145   160      0  -1   0
   145   176      0  -1   0
   145   145      0   0   1
   145   145      0   0  -1
   146   130      0   0   0
   146   131      0   0   0
   146   145      0   0   0
   146   147      0   0   0
   146   161      0   0   0
   146   162      0   0   0
   146   146      0   0   1
   146   146      0   0  -1
   147   131      0   0   0
   147   132      0   0   0
   147   146      0   0   0
   147   148      0   0   0
   147   162      0   0   0
   147   163      0   0   0
   147   147      0   0   1
   147   147      0   0  -1
   148   132      0   0   0
   148   133      0   0   0
   148   147      0   0   0
   148   149      0   0   0
   148   163      0   0   0
   148   164      0   0   0
   148   148      0   0   1
   148   148      0   0  -1
   149   133      0   0   0
   149   134      0   0   0
   149   148      0   0   0
   149   150      0   0   0
   149   164      0   0   0
   149   165      0   0   0
   149   149      0   0   1
   149   149      0   0  -1
   150   134      0   0   0
   150   135      0   0   0
   150   149      0   0   0
   150   151      0   0   0
   150   165      0   0   0
   150   166      0   0   0
   150   150      0   0   1
   150   150      0   0  -1
   151   135      0   0   0
   151   136      0   0   0
   151   150      0   0   0
   151   152      0   0   0
   151   166      0   0   0
   151   167      0   0   0
   151   151      0   0   1
   151   151      0   0  -1
   152   136      0   0   0
   152   137      0   0   0
   152   151      0   0   0
   152   153      0   0   0
   152   167      0   0   0
   152   168      0   0   0
   152   152      0   0   1
   152   152      0   0  -1
   153   137      0   0   0
   153   138      0   0   0
   153   152      0   0   0
   153   154      0   0   0
   153   168      0   0   0
   153   169      0   0   0
   153   153      0   0   1
   153   153      0   0  -1
   154   138      0   0   0
   154   139      0   0   0
   154   153      0   0   0
   154   155      0   0   0
   154   169      0   0   0
   154   170      0   0   0
   154   154      0   0   1
   154   154      0   0  -1
   155   139      0   0   0
   155   140      0   0   0
   155   154      0   0   0
   155   156      0   0   0
   155   170      0   0   0
   155   171      0   0   0
   155   155      0   0   1
   155   155      0   0  -1
   156   140      0   0   0
   156   141      0   0   0
   156   155      0   0   0
   156   157      0   0   0
   156   171      0   0   0
   156   172      0   0   0
   156   156      0   0   1
   156   156      0   0  -1
   157   141      0   0   0
   157   142      0   0   0
   157   156      0   0   0
   157   158      0   0   0
   157   172      0   0   0
   157   173      0   0   0
   157   157      0   0   1
   157   157      0   0  -1
   158   142      0   0   0
   158   143      0   0   0
   158   157      0   0   0
   158   159      0   0   0
   158   173      0   0   0
   158   174      0   0   0
   158   158      0   0   1
   158   158      0   0  -1
   159   143      0   0   0
   159   144      0   0   0
   159   158      0   0   0
   159   160      0   0   0
   159   174      0   0   0
   159   175      0   0   0
   159   159      0   0   1
   159   159      0   0  -1
   160   144      0   0   0
   160   159      0   0   0
   160   175      0   0   0
   160   176      0   0   0
   160   129      0   1   0
   160   145      0   1   0
   160   160      0   0   1
   160   160      0   0  -1
   161   145      0   0   0
   161   146      0   0   0
   161   162      0   0   0
   161   177      0   0   0
   161   176      0  -1   0
   161   192      0  -1   0
   161   161      0   0   1
   161   161      0   0  -1
   162   146      0   0   0
   162   147      0   0   0
   162   161      0   0   0
   162   163      0   0   0
   162   177      0   0   0
   162   178      0   0   0
   162   162      0   0   1
   162   162      0   0  -1
   163   147      0   0   0
   163   148      0   0   0
   163   162      0   0   0
   163   164      0   0   0
   163   178      0   0   0
   163   179      0   0   0
   163   163      0   0   1
   163   163      0   0  -1
   164   148      0   0   0
   164   149      0   0   0
   164   163      0   0   0
   164   165      0   0   0
   164   179      0   0   0
   164   180      0   0   0
   164   164      0   0   1
   164   164      0   0  -1
   165   149      0   0   0
   165   150      0   0   0
   165   164      0   0   0
   165   166      0   0   0
   165   180      0   0   0
   165   181      0   0   0
   165   165      0   0   1
   165   165      0   0  -1
   166   150      0   0   0
   166   151      0   0   0
   166   165      0   0   0
   166   167      0   0   0
   166   181      0   0   0
   166   182      0   0   0
   166   166      0   0   1
   166   166      0   0  -1
   167   151      0   0   0
   167   152      0   0   0
   167   166      0   0   0
   167   168      0   0   0
   167   182      0   0   0
   167   183      0   0   0
   167   167      0   0   1
   167   167      0   0  -1
   168   152      0   0   0
   168   153      0   0   0
   168   167      0   0   0
   168   169      0   0   0
   168   183      0   0   0
   168   184      0   0   0
   168   168      0   0   1
   168   168      0   0  -1
   169   153      0   0   0
   169   154      0   0   0
   169   168      0   0   0
   169   170      0   0   0
   169   184      0   0   0
   169   185      0   0   0
   169   169      0   0   1
   169   169      0   0  -1
   170   154      0   0   0
   170   155      0   0   0
   170   169      0   0   0
   170   171      0   0   0
   170   185      0   0   0
   170   186      0   0   0
   170   170      0   0   1
   170   170      0   0  -1
   171   155      0   0   0
   171   156      0   0   0
   171   170      0   0   0
   171   172      0   0   0
   171   186      0   0   0
   171   187      0   0   0
   171   171      0   0   1
   171   171      0   0  -1
   172   156      0   0   0
   172   157      0   0   0
   172   171      0   0   0
   172   173      0   0   0
   172   187      0   0   0
   172   188      0   0   0
   172   172      0   0   1
   172   172      0   0  -1
   173   157      0   0   0
   173   158      0   0   0
   173   172      0   0   0
   173   174      0   0   0
   173   188      0   0   0
   173   189      0   0   0
   173   173      0   0   1
   173   173      0   0  -1
   174   158      0   0   0
   174   159      0   0   0
   174   173      0   0   0
   174   175      0   0   0
   174   189      0   0   0
   174   190      0   0   0
   174   174      0   0   1
   174   174      0   0  -1
   175   159      0   0   0
   175   160      0   0   0
   175   174      0   0   0
   175   176      0   0   0
   175   190      0   0   0
   175   191      0   0   0
   175   175      0   0   1
   175   175      0   0  -1
   176   160      0   0   0
   176   175      0   0   0
   176   191      0   0   0
   176   192      0   0   0
   176   145      0   1   0
   176   161      0   1   0
   176   176      0   0   1
   176   176      0   0  -1
   177   161      0   0   0
   177   162      0   0   0
   177   178      0   0   0
   177   193      0   0   0
   177   192      0  -1   0
   177   208      0  -1   0
   177   177      0   0   1
   177   177      0   0  -1
   178   162      0   0   0
   178   163      0   0   0
   178   177      0   0   0
   178   179      0   0   0
   178   193      0   0   0
   178   194      0   0   0
   178   178      0   0   1
   178   178      0   0  -1
   179   163      0   0   0
   179   164      0   0   0
   179   178      0   0   0
   179   180      0   0   0
   179   194      0   0   0
   179   195      0   0   0
   179   179      0   0   1
   179   179      0   0  -1
   180   164      0   0   0
   180   165      0   0   0
   180   179      0   0   0
   180   181      0   0   0
   180   195      0   0   0
   180   196      0   0   0
   180   180      0   0   1
   180   180      0   0  -1
   181   165      0   0   0
   181   166      0   0   0
   181   180      0   0   0
   181   182      0   0   0
   181   196      0   0   0
   181   197      0   0   0
   181   181      0   0   1
   181   181      0   0  -1
   182   166      0   0   0
   182   167      0   0   0
   182   181      0   0   0
   182   183      0   0   0
   182   197      0   0   0
   182   198      0   0   0
   182   182      0   0   1
   182   182      0   0  -1
   183   167      0   0   0
   183   168      0   0   0
   183   182      0   0   0
   183   184      0   0   0
   183   198      0   0   0
   183   199      0   0   0
   183   183      0   0   1
   183   183      0   0  -1
   184   168      0   0   0
   184   169      0   0   0
   184   183      0   0   0
   184   185      0   0   0
   184   199      0   0   0
   184   200      0   0   0
   184   184      0   0   1
   184   184      0   0  -1
   185   169      0   0   0
   185   170      0   0   0
   185   184      0   0   0
   185   186      0   0   0
   185   200      0   0   0
   185   201      0   0   0
   185   185      0   0   1
   185   185      0   0  -1
   186   170      0   0   0
   186   171      0   0   0
   186   185      0   0   0
   186   187      0   0   0
   186   201      0   0   0
   186   202      0   0   0
   186   186      0   0   1
   186   186      0   0  -1
   187   171      0   0   0
   187   172      0   0   0
   187   186      0   0   0
   187   188      0   0   0
   187   202      0   0   0
   187   203      0   0   0
   187   187      0   0   1
   187   187      0   0  -1
   188   172      0   0   0
   188   173      0   0   0
   188   187      0   0   0
   188   189      0   0   0
   188   203      0   0   0
   188   204      0   0   0
   188   188      0   0   1
   188   188      0   0  -1
   189   173      0   0   0
   189   174      0   0   0
   189   188      0   0   0
   189   190      0   0   0
   189   204      0   0   0
   189   205      0   0   0
   189   189      0   0   1
   189   189      0   0  -1
   190   174      0   0   0
   190   175      0   0   0
   190   189      0   0   0
   190   191      0   0   0
   190   205      0   0   0
   190   206      0   0   0
   190   190      0   0   1
   190   190      0   0  -1
   191   175      0   0   0
   191   176      0   0   0
   191   190      0   0   0
   191   192      0   0   0
   191   206      0   0   0
   191   207      0   0   0
   191   191      0   0   1
   191   191      0   0  -1
   192   176      0   0   0
   192   191      0   0   0
   192   207      0   0   0
   192   208      0   0   0
   192   161      0   1   0
   192   177      0   1   0
   192   192      0   0   1
   192   192      0   0  -1
   193   177      0   0   0
   193   178      0   0   0
   193   194      0   0   0
   193   209      0   0   0
   193   208      0  -1   0
   193   224      0  -1   0
   193   193      0   0   1
   193   193      0   0  -1
   194   178      0   0   0
   194   179      0   0   0
   194   193      0   0   0
   194   195      0   0   0
   194   209      0   0   0
   194   210      0   0   0
   194   194      0   0   1
   194   194      0   0  -1
   195   179      0   0   0
   195   180      0   0   0
   195   194      0   0   0
   195   196      0   0   0
   195   210      0   0   0
   195   211      0   0   0
   195   195      0   0   1
   195   195      0   0  -1
   196   180      0   0   0
   196   181      0   0   0
   196   195      0   0   0
   196   197      0   0   0
   196   211      0   0   0
   196   212      0   0   0
   196   196      0   0   1
   196   196      0   0  -1
   197   181      0   0   0
   197   182      0   0   0
   197   196      0   0   0
   197   198      0   0   0
   197   212      0   0   0
   197   213      0   0   0
   197   197      0   0   1
   197   197      0   0  -1
   198   182      0   0   0
   198   183      0   0   0
   198   197      0   0   0
   198   199      0   0   0
   198   213      0   0   0
   198   214      0   0   0
   198   198      0   0   1
   198   198      0   0  -1
   199   183      0   0   0
   199   184      0   0   0
   199   198      0   0   0
   199   200      0   0   0
   199   214      0   0   0
   199   215      0   0   0
   199   199      0   0   1
   199   199      0   0  -1
   200   184      0   0   0
   200   185      0   0   0
   200   199      0   0   0
   200   201      0   0   0
   200   215      0   0   0
   200   216      0   0   0
   200   200      0   0   1
   200   200      0   0  -1
   201   185      0   0   0
   201   186      0   0   0
   201   200      0   0   0
   201   202      0   0   0
   201   216      0   0   0
   201   217      0   0   0
   201   201      0   0   1
   201   201      0   0  -1
   202   186      0   0   0
   202   187      0   0   0
   202   201      0   0   0
   202   203      0   0   0
   202   217      0   0   0
   202   218      0   0   0
   202   202      0   0   1
   202   202      0   0  -1
   203   187      0   0   0
   203   188      0   0   0
   203   202      0   0   0
   203   204      0   0   0
   203   218      0   0   0
   203   219      0   0   0
   203   203      0   0   1
   203   203      0   0  -1
   204   188      0   0   0
   204   189      0   0   0
   204   203      0   0   0
   204   205      0   0   0
   204   219      0   0   0
   204   220      0   0   0
   204   204      0   0   1
   204   204      0   0  -1
   205   189      0   0   0
   205   190      0   0   0
   205   204      0   0   0
   205   206      0   0   0
   205   220      0   0   0
   205   221      0   0   0
   205   205      0   0   1
   205   205      0   0  -1
   206   190      0   0   0
   206   191      0   0   0
   206   205      0   0   0
   206   207      0   0   0
   206   221      0   0   0
   206   222      0   0   0
   206   206      0   0   1
   206   206      0   0  -1
   207   191      0   0   0
   207   192      0   0   0
   207   206      0   0   0
   207   208      0   0   0
   207   222      0   0   0
   207   223      0   0   0
   207   207      0   0   1
   207   207      0   0  -1
   208   192      0   0   0
   208   207      0   0   0
   208   223      0   0   0
   208   224      0   0   0
   208   177      0   1   0
   208   193      0   1   0
   208   208      0   0   1
   208   208      0   0  -1
   209   193      0   0   0
   209   194      0   0   0
   209   210      0   0   0
   209   225      0   0   0
   209   224      0  -1   0
   209   240      0  -1   0
   209   209      0   0   1
   209   209      0   0  -1
   210   194      0   0   0
   210   195      0   0   0
   210   209      0   0   0
   210   211      0   0   0
   210   225      0   0   0
   210   226      0   0   0
   210   210      0   0   1
   210   210      0   0  -1
   211   195      0   0   0
   211   196      0   0   0
   211   210      0   0   0
   211   212      0   0   0
   211   226      0   0   0
   211   227      0   0   0
   211   211      0   0   1
   211   211      0   0  -1
   212   196      0   0   0
   212   197      0   0   0
   212   211      0   0   0
   212   213      0   0   0
   212   227      0   0   0
   212   228      0   0   0
   212   212      0   0   1
   212   212      0   0  -1
   213   197      0   0   0
   213   198      0   0   0
   213   212      0   0   0
   213   214      0   0   0
   213   228      0   0   0
   213   229      0   0   0
   213   213      0   0   1
   213   213      0   0  -1
   214   198      0   0   0
   214   199      0   0   0
   214   213      0   0   0
   214   215      0   0   0
   214   229      0   0   0
   214   230      0   0   0
   214   214      0   0   1
   214   214      0   0  -1
   215   199      0   0   0
   215   200      0   0   0
   215   214      0   0   0
   215   216      0   0   0
   215   230      0   0   0
   215   231      0   0   0
   215   215      0   0   1
   215   215      0   0  -1
   216   200      0   0   0
   216   201      0   0   0
   216   215      0   0   0
   216   217      0   0   0
   216   231      0   0   0
   216   232      0   0   0
   216   216      0   0   1
   216   216      0   0  -1
   217   201      0   0   0
   217   202      0   0   0
   217   216      0   0   0
   217   218      0   0   0
   217   232      0   0   0
   217   233      0   0   0
   217   217      0   0   1
   217   217      0   0  -1
   218   202      0   0   0
   218   203      0   0   0
   218   217      0   0   0
   218   219      0   0   0
   218   233      0   0   0
   218   234      0   0   0
   218   218      0   0   1
   218   218      0   0  -1
   219   203      0   0   0
   219   204      0   0   0
   219   218      0   0   0
   219   220      0   0   0
   219   234      0   0   0
   219   235      0   0   0
   219   219      0   0   1
   219   219      0   0  -1
   220   204      0   0   0
   220   205      0   0   0
   220   219      0   0   0
   220   221      0   0   0
   220   235      0   0   0
   220   236      0   0   0
   220   220      0   0   1
   220   220      0   0  -1
   221   205      0   0   0
   221   206      0   0   0
   221   220      0   0   0
   221   222      0   0   0
   221   236      0   0   0
   221   237      0   0   0
   221   221      0   0   1
   221   221      0   0  -1
   222   206      0   0   0
   222   207      0   0   0
   222   221      0   0   0
   222   223      0   0   0
   222   237      0   0   0
   222   238      0   0   0
   222   222      0   0   1
   222   222      0   0  -1
   223   207      0   0   0
   223   208      0   0   0
   223   222      0   0   0
   223   224      0   0   0
   223   238      0   0   0
   223   239      0   0   0
   223   223      0   0   1
   223   223      0   0  -1
   224   208      0   0   0
   224   223      0   0   0
   224   239      0   0   0
   224   240      0   0   0
   224   193      0   1   0
   224   209      0   1   0
   224   224      0   0   1
   224   224      0   0  -1
   225   209      0   0   0
   225   210      0   0   0
   225   226      0   0   0
   225   241      0   0   0
   225   240      0  -1   0
   225   256      0  -1   0
   225   225      0   0   1
   225   225      0   0  -1
   226   210      0   0   0
   226   211      0   0   0
   226   225      0   0   0
   226   227      0   0   0
   226   241      0   0   0
   226   242      0   0   0
   226   226      0   0   1
   226   226      0   0  -1
   227   211      0   0   0
   227   212      0   0   0
   227   226      0   0   0
   227   228      0   0   0
   227   242      0   0   0
   227   243      0   0   0
   227   227      0   0   1
   227   227      0   0  -1
   228   212      0   0   0
   228   213      0   0   0
   228   227      0   0   0
   228   229      0   0   0
   228   243      0   0   0
   228   244      0   0   0
   228   228      0   0   1
   228   228      0   0  -1
   229   213      0   0   0
   229   214      0   0   0
   229   228      0   0   0
   229   230      0   0   0
   229   244      0   0   0
   229   245      0   0   0
   229   229      0   0   1
   229   229      0   0  -1
   230   214      0   0   0
   230   215      0   0   0
   230   229      0   0   0
   230   231      0   0   0
   230   245      0   0   0
   230   246      0   0   0
   230   230      0   0   1
   230   230      0   0  -1
   231   215      0   0   0
   231   216      0   0   0
   231   230      0   0   0
   231   232      0   0   0
   231   246      0   0   0
   231   247      0   0   0
   231   231      0   0   1
   231   231      0   0  -1
   232   216      0   0   0
   232   217      0   0   0
   232   231      0   0   0
   232   233      0   0   0
   232   247      0   0   0
   232   248      0   0   0
   232   232      0   0   1
   232   232      0   0  -1
   233   217      0   0   0
   233   218      0   0   0
   233   232      0   0   0
   233   234      0   0   0
   233   248      0   0   0
   233   249      0   0   0
   233   233      0   0   1
   233   233      0   0  -1
   234   218      0   0   0
   234   219      0   0   0
   234   233      0   0   0
   234   235      0   0   0
   234   249      0   0   0
   234   250      0   0   0
   234   234      0   0   1
   234   234      0   0  -1
   235   219      0   0   0
   235   220      0   0   0
   235   234      0   0   0
   235   236      0   0   0
   235   250      0   0   0
   235   251      0   0   0
   235   235      0   0   1
   235   235      0   0  -1
   236   220      0   0   0
   236   221      0   0   0
   236   235      0   0   0
   236   237      0   0   0
   236   251      0   0   0
   236   252      0   0   0
   236   236      0   0   1
   236   236      0   0  -1
   237   221      0   0   0
   237   222      0   0   0
   237   236      0   0   0
   237   238      0   0   0
   237   252      0   0   0
   237   253      0   0   0
   237   237      0   0   1
   237   237      0   0  -1
   238   222      0   0   0
   238   223      0   0   0
   238   237      0   0   0
   238   239      0   0   0
   238   253      0   0   0
   238   254      0   0   0
   238   238      0   0   1
   238   238      0   0  -1
   239   223      0   0   0
   239   224      0   0   0
   239   238      0   0   0
   239   240      0   0   0
   239   254      0   0   0
   239   255      0   0   0
   239   239      0   0   1
   239   239      0   0  -1
   240   224      0   0   0
   240   239      0   0   0
   240   255      0   0   0
   240   256      0   0   0
   240   209      0   1   0
   240   225      0   1   0
   240   240      0   0   1
   240   240      0   0  -1
   241   225      0   0   0
   241   226      0   0   0
   241   242      0   0   0
   241   256      0  -1   0
   241     1      1   0   0
   241    16      1  -1   0
   241   241      0   0   1
   241   241      0   0  -1
   242   226      0   0   0
   242   227      0   0   0
   242   241      0   0   0
   242   243      0   0   0
   242     1      1   0   0
   242     2      1   0   0
   242   242      0   0   1
   242   242      0   0  -1
   243   227      0   0   0
   243   228      0   0   0
   243   242      0   0   0
   243   244      0   0   0
   243     2      1   0   0
   243     3      1   0   0
   243   243      0   0   1
   243   243      0   0  -1
   244   228      0   0   0
   244   229      0   0   0
   244   243      0   0   0
   244   245      0   0   0
   244     3      1   0   0
   244     4      1   0   0
   244   244      0   0   1
   244   244      0   0  -1
   245   229      0   0   0
   245   230      0   0   0
   245   244      0   0   0
   245   246      0   0   0
   245     4      1   0   0
   245     5      1   0   0
   245   245      0   0   1
   245   245      0   0  -1
   246   230      0   0   0
   246   231      0   0   0
   246   245      0   0   0
   246   247      0   0   0
   246     5      1   0   0
   246     6      1   0   0
   246   246      0   0   1
   246   246      0   0  -1
   247   231      0   0   0
   247   232      0   0   0
   247   246      0   0   0
   247   248      0   0   0
   247     6      1   0   0
   247     7      1   0   0
   247   247      0   0   1
   247   247      0   0  -1
   248   232      0   0   0
   248   233      0   0   0
   248   247      0   0   0
   248   249      0   0   0
   248     7      1   0   0
   248     8      1   0   0
   248   248      0   0   1
   248   248      0   0  -1
   249   233      0   0   0
   249   234      0   0   0
   249   248      0   0   0
   249   250      0   0   0
   249     8      1   0   0
   249     9      1   0   0
   249   249      0   0   1
   249   249      0   0  -1
   250   234      0   0   0
   250   235      0   0   0
   250   249      0   0   0
   250   251      0   0   0
   250     9      1   0   0
   250    10      1   0   0
   250   250      0   0   1
   250   250      0   0  -1
   251   235      0   0   0
   251   236      0   0   0
   251   250      0   0   0
   251   252      0   0   0
   251    10      1   0   0
   251    11      1   0   0
   251   251      0   0   1
   251   251      0   0  -1
   252   236      0   0   0
   252   237      0   0   0
   252   251      0   0   0
   252   253      0   0   0
   252    11      1   0   0
   252    12      1   0   0
   252   252      0   0   1
   252   252      0   0  -1
   253   237      0   0   0
   253   238      0   0   0
   253   252      0   0   0
   253   254      0   0   0
   253    12      1   0   0
   253    13      1   0   0
   253   253      0   0   1
   253   253      0   0  -1
   254   238      0   0   0
   254   239      0   0   0
   254   253      0   0   0
   254   255      0   0   0
   254    13      1   0   0
   254    14      1   0   0
   254   254      0   0   1
   254   254      0   0  -1
   255   239      0   0   0
   255   240      0   0   0
   255   254      0   0   0
   255   256      0   0   0
   255    14      1   0   0
   255    15      1   0   0
   255   255      0   0   1
   255   255      0   0  -1
   256   240      0   0   0
   256   255      0   0   0
   256   225      0   1   0
   256   241      0   1   0
   256    15      1   0   0
   256    16      1   0   0
   256   256      0   0   1
   256   256      0   0  -1
end nnkpts

begin exclude_bands
   0
end exclude_bands
