
     Program PWSCF v.6.6 starts on 17Oct2020 at  2:38:45 

     This program is part of the open-source Quantum ESPRESSO suite
     for quantum simulation of materials; please cite
         "P. Giannozzi et al., J. Phys.:Condens. Matter 21 395502 (2009);
         "P. Giannozzi et al., J. Phys.:Condens. Matter 29 465901 (2017);
          URL http://www.quantum-espresso.org", 
     in publications or presentations arising from this work. More details at
     http://www.quantum-espresso.org/quote

     Parallel version (MPI), running on     8 processors

     MPI processes distributed on     1 nodes
     R & G space division:  proc/nbgrp/npool/nimage =       8
     Fft bands division:     nmany     =       1
     Reading input from band.in

     Current dimensions of program PWSCF are:
     Max number of different atomic species (ntypx) = 10
     Max number of k-points (npk) =  40000
     Max angular momentum in pseudopotentials (lmaxx) =  3

     Atomic positions and unit cell read from directory:
     ./outdir/graphene.save/
     Atomic positions from file used, from input discarded
 
     file C.pbe-n-kjpaw_psl.1.0.0.UPF: wavefunction(s)  2S 2P renormalized

     Subspace diagonalization in iterative solution of the eigenvalue problem:
     a serial algorithm will be used

     Found symmetry operation: I + ( -0.0000  0.5000  0.0000)
     This is a supercell, fractional translations are disabled
     Message from routine setup:
     using ibrav=0 with symmetry is DISCOURAGED, use correct ibrav instead
 
     Parallelization info
     --------------------
     sticks:   dense  smooth     PW     G-vecs:    dense   smooth      PW
     Min         271     119     34                 8981     2651     407
     Max         272     120     36                 8985     2656     408
     Sum        2173     955    283                71857    21231    3263
 


     bravais-lattice index     =            0
     lattice parameter (alat)  =       9.3237  a.u.
     unit-cell volume          =     617.8039 (a.u.)^3
     number of atoms/cell      =            8
     number of atomic types    =            1
     number of electrons       =        32.00
     number of Kohn-Sham states=           20
     kinetic-energy cutoff     =      40.1868  Ry
     charge density cutoff     =     361.6810  Ry
     Exchange-correlation= SLA PW PBX PBC
                           (   1   4   3   4   0   0   0)

     celldm(1)=   9.323730  celldm(2)=   0.000000  celldm(3)=   0.000000
     celldm(4)=   0.000000  celldm(5)=   0.000000  celldm(6)=   0.000000

     crystal axes: (cart. coord. in units of alat)
               a(1) = (   1.000000   0.000000   0.000000 )  
               a(2) = (  -0.500000   0.866025   0.000000 )  
               a(3) = (   0.000000   0.000000   0.880138 )  

     reciprocal axes: (cart. coord. in units 2 pi/alat)
               b(1) = (  1.000000  0.577350  0.000000 )  
               b(2) = (  0.000000  1.154701  0.000000 )  
               b(3) = (  0.000000  0.000000  1.136185 )  


     PseudoPot. # 1 for C  read from file:
     /home/sinan/.burai/.pseudopot/C.pbe-n-kjpaw_psl.1.0.0.UPF
     MD5 check sum: 5f16ad9a65e90284d1d834d4ab3b0f7d
     Pseudo is Projector augmented-wave + core cor, Zval =  4.0
     Generated using "atomic" code by A. Dal Corso v.6.3
     Shape of augmentation charge: PSQ
     Using radial grid of 1073 points,  4 beta functions with: 
                l(1) =   0
                l(2) =   0
                l(3) =   1
                l(4) =   1
     Q(r) pseudized with 0 coefficients 


     atomic species   valence    mass     pseudopotential
        C              4.00    12.01070     C ( 1.00)

     12 Sym. Ops. (no inversion) found



   Cartesian axes

     site n.     atom                  positions (alat units)
         1           C   tau(   1) = (   0.0000000   0.0000000   0.4400692  )
         2           C   tau(   2) = (   0.2500005   0.1443379   0.4400692  )
         3           C   tau(   3) = (  -0.2500000   0.4330126   0.4400692  )
         4           C   tau(   4) = (   0.0000005   0.5773505   0.4400692  )
         5           C   tau(   5) = (   0.5000000   0.0000000   0.4400692  )
         6           C   tau(   6) = (   0.7500005   0.1443379   0.4400692  )
         7           C   tau(   7) = (   0.2500000   0.4330126   0.4400692  )
         8           C   tau(   8) = (   0.5000005   0.5773505   0.4400692  )

     number of k points=   101  Gaussian smearing, width (Ry)=  0.0100

     Number of k-points >= 100: set verbosity='high' to print them.

     Dense  grid:    71857 G-vectors     FFT dimensions: (  60,  60,  50)

     Smooth grid:    21231 G-vectors     FFT dimensions: (  40,  40,  36)

     Estimated max dynamical RAM per process >      10.75 MB

     Estimated total dynamical RAM >      85.99 MB

     Check: negative core charge=   -0.000010

     The potential is recalculated from file :
     ./outdir/graphene.save/charge-density

     Starting wfcs are   32 randomized atomic wfcs
     Checking if some PAW data can be deallocated... 

     Band Structure Calculation
     Davidson diagonalization with overlap

     ethr =  3.13E-11,  avg # of iterations = 27.1

     total cpu time spent up to now is       23.7 secs

     End of band structure calculation

     Number of k-points >= 100: set verbosity='high' to print the bands.

     Writing output data file ./outdir/graphene.save/
 
     init_run     :      0.49s CPU      0.83s WALL (       1 calls)
     electrons    :     18.79s CPU     21.86s WALL (       1 calls)

     Called by init_run:
     wfcinit      :      0.00s CPU      0.01s WALL (       1 calls)
     potinit      :      0.08s CPU      0.26s WALL (       1 calls)
     hinit0       :      0.24s CPU      0.36s WALL (       1 calls)

     Called by electrons:
     c_bands      :     18.79s CPU     21.86s WALL (       1 calls)
     v_of_rho     :      0.03s CPU      0.09s WALL (       1 calls)
     newd         :      0.02s CPU      0.03s WALL (       1 calls)
     PAW_pot      :      0.04s CPU      0.15s WALL (       1 calls)

     Called by c_bands:
     init_us_2    :      0.03s CPU      0.04s WALL (     101 calls)
     cegterg      :     17.32s CPU     20.04s WALL (     181 calls)

     Called by *egterg:
     cdiaghg      :      1.37s CPU      1.48s WALL (    2837 calls)
     h_psi        :     13.38s CPU     15.69s WALL (    3018 calls)
     s_psi        :      0.47s CPU      0.54s WALL (    3018 calls)
     g_psi        :      0.05s CPU      0.05s WALL (    2736 calls)

     Called by h_psi:
     h_psi:calbec :      1.32s CPU      1.58s WALL (    3018 calls)
     vloc_psi     :     11.15s CPU     13.10s WALL (    3018 calls)
     add_vuspsi   :      0.76s CPU      0.86s WALL (    3018 calls)

     General routines
     calbec       :      1.31s CPU      1.57s WALL (    3018 calls)
     fft          :      0.11s CPU      0.26s WALL (      13 calls)
     ffts         :      0.00s CPU      0.00s WALL (       1 calls)
     fftw         :      9.98s CPU     11.81s WALL (   75240 calls)
     interpolate  :      0.00s CPU      0.00s WALL (       1 calls)
     davcio       :      0.02s CPU      0.03s WALL (     202 calls)
 
     Parallel routines
     fft_scatt_xy :      1.05s CPU      1.17s WALL (   75254 calls)
     fft_scatt_yz :      3.46s CPU      4.71s WALL (   75254 calls)
 
     PWSCF        :     21.00s CPU     25.47s WALL

 
   This run was terminated on:   2:39:10  17Oct2020            

=------------------------------------------------------------------------------=
   JOB DONE.
=------------------------------------------------------------------------------=
