
     Program PWSCF v.6.6 starts on 17Oct2020 at  2:38:13 

     This program is part of the open-source Quantum ESPRESSO suite
     for quantum simulation of materials; please cite
         "P. Giannozzi et al., J. Phys.:Condens. Matter 21 395502 (2009);
         "P. Giannozzi et al., J. Phys.:Condens. Matter 29 465901 (2017);
          URL http://www.quantum-espresso.org", 
     in publications or presentations arising from this work. More details at
     http://www.quantum-espresso.org/quote

     Parallel version (MPI), running on     8 processors

     MPI processes distributed on     1 nodes
     R & G space division:  proc/nbgrp/npool/nimage =       8
     Fft bands division:     nmany     =       1
     Reading input from scf.in

     Current dimensions of program PWSCF are:
     Max number of different atomic species (ntypx) = 10
     Max number of k-points (npk) =  40000
     Max angular momentum in pseudopotentials (lmaxx) =  3
     file C.pbe-n-kjpaw_psl.1.0.0.UPF: wavefunction(s)  2S 2P renormalized

     Subspace diagonalization in iterative solution of the eigenvalue problem:
     a serial algorithm will be used

     Found symmetry operation: I + ( -0.0000  0.5000  0.0000)
     This is a supercell, fractional translations are disabled
     Message from routine setup:
     using ibrav=0 with symmetry is DISCOURAGED, use correct ibrav instead
 
     Parallelization info
     --------------------
     sticks:   dense  smooth     PW     G-vecs:    dense   smooth      PW
     Min         271     119     34                 8981     2651     407
     Max         272     120     36                 8985     2656     408
     Sum        2173     955    283                71857    21231    3263
 


     bravais-lattice index     =            0
     lattice parameter (alat)  =       9.3237  a.u.
     unit-cell volume          =     617.8039 (a.u.)^3
     number of atoms/cell      =            8
     number of atomic types    =            1
     number of electrons       =        32.00
     number of Kohn-Sham states=           20
     kinetic-energy cutoff     =      40.1868  Ry
     charge density cutoff     =     361.6810  Ry
     convergence threshold     =      1.0E-08
     mixing beta               =       0.4000
     number of iterations used =            8  plain     mixing
     Exchange-correlation= SLA PW PBX PBC
                           (   1   4   3   4   0   0   0)

     celldm(1)=   9.323730  celldm(2)=   0.000000  celldm(3)=   0.000000
     celldm(4)=   0.000000  celldm(5)=   0.000000  celldm(6)=   0.000000

     crystal axes: (cart. coord. in units of alat)
               a(1) = (   1.000000   0.000000   0.000000 )  
               a(2) = (  -0.500000   0.866025   0.000000 )  
               a(3) = (   0.000000   0.000000   0.880138 )  

     reciprocal axes: (cart. coord. in units 2 pi/alat)
               b(1) = (  1.000000  0.577350  0.000000 )  
               b(2) = (  0.000000  1.154701  0.000000 )  
               b(3) = (  0.000000  0.000000  1.136185 )  


     PseudoPot. # 1 for C  read from file:
     /home/sinan/.burai/.pseudopot/C.pbe-n-kjpaw_psl.1.0.0.UPF
     MD5 check sum: 5f16ad9a65e90284d1d834d4ab3b0f7d
     Pseudo is Projector augmented-wave + core cor, Zval =  4.0
     Generated using "atomic" code by A. Dal Corso v.6.3
     Shape of augmentation charge: PSQ
     Using radial grid of 1073 points,  4 beta functions with: 
                l(1) =   0
                l(2) =   0
                l(3) =   1
                l(4) =   1
     Q(r) pseudized with 0 coefficients 


     atomic species   valence    mass     pseudopotential
        C              4.00    12.01070     C ( 1.00)

     12 Sym. Ops. (no inversion) found



   Cartesian axes

     site n.     atom                  positions (alat units)
         1           C   tau(   1) = (   0.0000000   0.0000000   0.4400692  )
         2           C   tau(   2) = (   0.2500005   0.1443379   0.4400692  )
         3           C   tau(   3) = (  -0.2500000   0.4330126   0.4400692  )
         4           C   tau(   4) = (   0.0000005   0.5773505   0.4400692  )
         5           C   tau(   5) = (   0.5000000   0.0000000   0.4400692  )
         6           C   tau(   6) = (   0.7500005   0.1443379   0.4400692  )
         7           C   tau(   7) = (   0.2500000   0.4330126   0.4400692  )
         8           C   tau(   8) = (   0.5000005   0.5773505   0.4400692  )

     number of k points=    61  Gaussian smearing, width (Ry)=  0.0100
                       cart. coord. in units 2pi/alat
        k(    1) = (   0.0000000   0.0000000   0.0000000), wk =   0.0034722
        k(    2) = (   0.0000000   0.0481125   0.0000000), wk =   0.0208333
        k(    3) = (   0.0000000   0.0962251   0.0000000), wk =   0.0208333
        k(    4) = (   0.0000000   0.1443376   0.0000000), wk =   0.0208333
        k(    5) = (   0.0000000   0.1924501   0.0000000), wk =   0.0208333
        k(    6) = (   0.0000000   0.2405626   0.0000000), wk =   0.0208333
        k(    7) = (   0.0000000   0.2886752   0.0000000), wk =   0.0208333
        k(    8) = (   0.0000000   0.3367877   0.0000000), wk =   0.0208333
        k(    9) = (   0.0000000   0.3849002   0.0000000), wk =   0.0208333
        k(   10) = (   0.0000000   0.4330127   0.0000000), wk =   0.0208333
        k(   11) = (   0.0000000   0.4811253   0.0000000), wk =   0.0208333
        k(   12) = (   0.0000000   0.5292378   0.0000000), wk =   0.0208333
        k(   13) = (   0.0000000  -0.5773503   0.0000000), wk =   0.0104167
        k(   14) = (   0.0416667   0.0721688   0.0000000), wk =   0.0208333
        k(   15) = (   0.0416667   0.1202813   0.0000000), wk =   0.0416667
        k(   16) = (   0.0416667   0.1683938   0.0000000), wk =   0.0416667
        k(   17) = (   0.0416667   0.2165064   0.0000000), wk =   0.0416667
        k(   18) = (   0.0416667   0.2646189   0.0000000), wk =   0.0416667
        k(   19) = (   0.0416667   0.3127314   0.0000000), wk =   0.0416667
        k(   20) = (   0.0416667   0.3608440   0.0000000), wk =   0.0416667
        k(   21) = (   0.0416667   0.4089565   0.0000000), wk =   0.0416667
        k(   22) = (   0.0416667   0.4570690   0.0000000), wk =   0.0416667
        k(   23) = (   0.0416667   0.5051815   0.0000000), wk =   0.0416667
        k(   24) = (   0.0416667   0.5532941   0.0000000), wk =   0.0416667
        k(   25) = (   0.0833333   0.1443376   0.0000000), wk =   0.0208333
        k(   26) = (   0.0833333   0.1924501   0.0000000), wk =   0.0416667
        k(   27) = (   0.0833333   0.2405626   0.0000000), wk =   0.0416667
        k(   28) = (   0.0833333   0.2886752   0.0000000), wk =   0.0416667
        k(   29) = (   0.0833333   0.3367877   0.0000000), wk =   0.0416667
        k(   30) = (   0.0833333   0.3849002   0.0000000), wk =   0.0416667
        k(   31) = (   0.0833333   0.4330127   0.0000000), wk =   0.0416667
        k(   32) = (   0.0833333   0.4811253   0.0000000), wk =   0.0416667
        k(   33) = (   0.0833333   0.5292378   0.0000000), wk =   0.0416667
        k(   34) = (   0.0833333   0.5773503   0.0000000), wk =   0.0208333
        k(   35) = (   0.1250000   0.2165064   0.0000000), wk =   0.0208333
        k(   36) = (   0.1250000   0.2646189   0.0000000), wk =   0.0416667
        k(   37) = (   0.1250000   0.3127314   0.0000000), wk =   0.0416667
        k(   38) = (   0.1250000   0.3608440   0.0000000), wk =   0.0416667
        k(   39) = (   0.1250000   0.4089565   0.0000000), wk =   0.0416667
        k(   40) = (   0.1250000   0.4570690   0.0000000), wk =   0.0416667
        k(   41) = (   0.1250000   0.5051815   0.0000000), wk =   0.0416667
        k(   42) = (   0.1250000   0.5532941   0.0000000), wk =   0.0416667
        k(   43) = (   0.1666667   0.2886752   0.0000000), wk =   0.0208333
        k(   44) = (   0.1666667   0.3367877   0.0000000), wk =   0.0416667
        k(   45) = (   0.1666667   0.3849002   0.0000000), wk =   0.0416667
        k(   46) = (   0.1666667   0.4330127   0.0000000), wk =   0.0416667
        k(   47) = (   0.1666667   0.4811253   0.0000000), wk =   0.0416667
        k(   48) = (   0.1666667   0.5292378   0.0000000), wk =   0.0416667
        k(   49) = (   0.1666667   0.5773503   0.0000000), wk =   0.0208333
        k(   50) = (   0.2083333   0.3608440   0.0000000), wk =   0.0208333
        k(   51) = (   0.2083333   0.4089565   0.0000000), wk =   0.0416667
        k(   52) = (   0.2083333   0.4570690   0.0000000), wk =   0.0416667
        k(   53) = (   0.2083333   0.5051815   0.0000000), wk =   0.0416667
        k(   54) = (   0.2083333   0.5532941   0.0000000), wk =   0.0416667
        k(   55) = (   0.2500000   0.4330127   0.0000000), wk =   0.0208333
        k(   56) = (   0.2500000   0.4811253   0.0000000), wk =   0.0416667
        k(   57) = (   0.2500000   0.5292378   0.0000000), wk =   0.0416667
        k(   58) = (   0.2500000   0.5773503   0.0000000), wk =   0.0208333
        k(   59) = (   0.2916667   0.5051815   0.0000000), wk =   0.0208333
        k(   60) = (   0.2916667   0.5532941   0.0000000), wk =   0.0416667
        k(   61) = (   0.3333333   0.5773503   0.0000000), wk =   0.0069444

     Dense  grid:    71857 G-vectors     FFT dimensions: (  60,  60,  50)

     Smooth grid:    21231 G-vectors     FFT dimensions: (  40,  40,  36)

     Estimated max dynamical RAM per process >      19.45 MB

     Estimated total dynamical RAM >     155.62 MB

     Check: negative core charge=   -0.000010

     Initial potential from superposition of free atoms

     starting charge   31.99967, renormalised to   32.00000
     Starting wfcs are   32 randomized atomic wfcs
     Checking if some PAW data can be deallocated... 

     total cpu time spent up to now is        2.1 secs

     Self-consistent Calculation

     iteration #  1     ecut=    40.19 Ry     beta= 0.40
     Davidson diagonalization with overlap
     ethr =  1.00E-02,  avg # of iterations =  2.8

     total cpu time spent up to now is        4.2 secs

     total energy              =    -147.49537337 Ry
     estimated scf accuracy    <       0.80865588 Ry

     iteration #  2     ecut=    40.19 Ry     beta= 0.40
     Davidson diagonalization with overlap
     ethr =  2.53E-03,  avg # of iterations =  2.0

     total cpu time spent up to now is        5.8 secs

     total energy              =    -147.42430098 Ry
     estimated scf accuracy    <       0.17560521 Ry

     iteration #  3     ecut=    40.19 Ry     beta= 0.40
     Davidson diagonalization with overlap
     ethr =  5.49E-04,  avg # of iterations =  2.7

     total cpu time spent up to now is        7.8 secs

     total energy              =    -147.45513109 Ry
     estimated scf accuracy    <       0.00370369 Ry

     iteration #  4     ecut=    40.19 Ry     beta= 0.40
     Davidson diagonalization with overlap
     ethr =  1.16E-05,  avg # of iterations =  5.3

     total cpu time spent up to now is       10.5 secs

     total energy              =    -147.45472261 Ry
     estimated scf accuracy    <       0.00255460 Ry

     iteration #  5     ecut=    40.19 Ry     beta= 0.40
     Davidson diagonalization with overlap
     c_bands:  1 eigenvalues not converged
     c_bands:  1 eigenvalues not converged
     ethr =  7.98E-06,  avg # of iterations =  2.9

     total cpu time spent up to now is       12.6 secs

     total energy              =    -147.45514197 Ry
     estimated scf accuracy    <       0.00000333 Ry

     iteration #  6     ecut=    40.19 Ry     beta= 0.40
     Davidson diagonalization with overlap
     ethr =  1.04E-08,  avg # of iterations =  4.4

     total cpu time spent up to now is       15.1 secs

     total energy              =    -147.45514534 Ry
     estimated scf accuracy    <       0.00000029 Ry

     iteration #  7     ecut=    40.19 Ry     beta= 0.40
     Davidson diagonalization with overlap
     ethr =  9.04E-10,  avg # of iterations =  2.1

     total cpu time spent up to now is       17.1 secs

     total energy              =    -147.45514544 Ry
     estimated scf accuracy    <       0.00000002 Ry

     iteration #  8     ecut=    40.19 Ry     beta= 0.40
     Davidson diagonalization with overlap
     ethr =  7.75E-11,  avg # of iterations =  2.3

     total cpu time spent up to now is       19.1 secs

     End of self-consistent calculation

          k = 0.0000 0.0000 0.0000 (  2669 PWs)   bands (ev):

   -14.7957  -9.5444  -9.5443  -9.5443  -8.5015  -8.5015  -8.5014  -2.7234
    -1.6612  -1.6611  -1.6611   1.7254   1.7255   2.4614   2.4614   2.4614
     6.5704   6.5704   6.5705   7.3511

          k = 0.0000 0.0481 0.0000 (  2683 PWs)   bands (ev):

   -14.7855  -9.7109  -9.5844  -9.5844  -8.4445  -8.4444  -8.3198  -2.7112
    -1.6936  -1.6936  -1.6509   1.6825   1.7028   2.3966   2.4542   2.4542
     6.5877   6.5878   6.6505   7.3646

          k = 0.0000 0.0962 0.0000 (  2685 PWs)   bands (ev):

   -14.7546 -10.0499  -9.6841  -9.6841  -8.2941  -8.2940  -7.9349  -2.6747
    -1.7887  -1.7886  -1.6205   1.5552   1.6360   2.2172   2.4336   2.4336
     6.6388   6.6388   6.8773   7.4049

          k = 0.0000 0.1443 0.0000 (  2679 PWs)   bands (ev):

   -14.7033 -10.4279  -9.8099  -9.8098  -8.0840  -8.0839  -7.4806  -2.6140
    -1.9427  -1.9426  -1.5691   1.3486   1.5285   1.9544   2.4019   2.4019
     6.7200   6.7201   7.2186   7.4721

          k = 0.0000 0.1925 0.0000 (  2674 PWs)   bands (ev):

   -14.6314 -10.8083  -9.9403  -9.9403  -7.8367  -7.8367  -6.9940  -2.5291
    -2.1480  -2.1479  -1.4983   1.0709   1.3860   1.6399   2.3619   2.3619
     6.8261   6.8261   7.5663   7.6420

          k = 0.0000 0.2406 0.0000 (  2670 PWs)   bands (ev):

   -14.5390 -11.1799 -10.0646 -10.0645  -7.5644  -7.5643  -6.4872  -2.4201
    -2.3964  -2.3963  -1.4076   0.7306   1.2142   1.2977   2.3170   2.3170
     6.9498   6.9499   7.6875   8.1220

          k = 0.0000 0.2887 0.0000 (  2672 PWs)   bands (ev):

   -14.4263 -11.5383 -10.1772 -10.1771  -7.2742  -7.2742  -5.9653  -2.6780
    -2.6779  -2.2873  -1.2981   0.3369   0.9441   1.0204   2.2706   2.2706
     7.0835   7.0835   7.8356   8.6410

          k = 0.0000 0.3368 0.0000 (  2668 PWs)   bands (ev):

   -14.2933 -11.8809 -10.2752 -10.2751  -6.9723  -6.9723  -5.4317  -2.9826
    -2.9825  -2.1311  -1.1700  -0.1006   0.5897   0.8109   2.2259   2.2259
     7.2187   7.2187   8.0105   9.1868

          k = 0.0000 0.3849 0.0000 (  2664 PWs)   bands (ev):

   -14.1401 -12.2068 -10.3568 -10.3568  -6.6655  -6.6655  -4.8887  -3.2987
    -3.2987  -1.9516  -1.0245  -0.5735   0.2417   0.5911   2.1857   2.1857
     7.3462   7.3463   8.2124   9.7495

          k = 0.0000 0.4330 0.0000 (  2660 PWs)   bands (ev):

   -13.9668 -12.5149 -10.4211 -10.4211  -6.3643  -6.3643  -4.3392  -3.6118
    -3.6118  -1.7492  -1.0739  -0.8624  -0.0953   0.3671   2.1522   2.1522
     7.4573   7.4574   8.4411  10.3218

          k = 0.0000 0.4811 0.0000 (  2656 PWs)   bands (ev):

   -13.7735 -12.8047 -10.4674 -10.4674  -6.0875  -6.0875  -3.8996  -3.8996
    -3.7860  -1.5957  -1.5245  -0.6849  -0.4179   0.1431   2.1271   2.1271
     7.5438   7.5438   8.6965   9.9828

          k = 0.0000 0.5292 0.0000 (  2656 PWs)   bands (ev):

   -13.5605 -13.0758 -10.4953 -10.4953  -5.8739  -5.8739  -4.1210  -4.1210
    -3.2315  -2.1323  -1.2781  -0.7236  -0.4935  -0.0770   2.1116   2.1116
     7.5985   7.5985   8.9785   9.6219

          k = 0.0000-0.5774 0.0000 (  2654 PWs)   bands (ev):

   -13.3278 -13.3278 -10.5046 -10.5046  -5.7886  -5.7886  -4.2091  -4.2091
    -2.6790  -2.6790  -1.0107  -1.0107  -0.2902  -0.2902   2.1064   2.1064
     7.6174   7.6174   9.2871   9.2871

          k = 0.0417 0.0722 0.0000 (  2681 PWs)   bands (ev):

   -14.7649  -9.8641  -9.8641  -9.5180  -8.4754  -8.1343  -8.1343  -2.6869
    -1.7990  -1.6729  -1.6729   1.5982   1.6574   2.3286   2.3286   2.4986
     6.5584   6.7445   6.7446   7.3914

          k = 0.0417 0.1203 0.0000 (  2690 PWs)   bands (ev):

   -14.7238 -10.2304 -10.0225  -9.5313  -8.3928  -7.9101  -7.7070  -2.6383
    -1.9634  -1.7582  -1.6322   1.4328   1.5685   2.1031   2.2534   2.5285
     6.5628   6.8655   7.0329   7.4452

          k = 0.0417 0.1684 0.0000 (  2678 PWs)   bands (ev):

   -14.6622 -10.6117 -10.1750  -9.6036  -8.2179  -7.6588  -7.2345  -2.5654
    -2.1793  -1.9015  -1.5713   1.1931   1.4411   1.8107   2.1746   2.5446
     6.5993   7.0078   7.4187   7.5260

          k = 0.0417 0.2165 0.0000 (  2673 PWs)   bands (ev):

   -14.5801 -10.9884 -10.3162  -9.7015  -7.9852  -7.3871  -6.7373  -2.4685
    -2.4384  -2.0961  -1.4901   0.8866   1.2811   1.4797   2.0957   2.5481
     6.6629   7.1650   7.6336   7.8725

          k = 0.0417 0.2646 0.0000 (  2665 PWs)   bands (ev):

   -14.4776 -11.3537 -10.4430  -9.8037  -7.7176  -7.0996  -6.2229  -2.7315
    -2.3477  -2.3332  -1.3898   0.5222   1.0958   1.1301   2.0200   2.5417
     6.7476   7.3299   7.7683   8.3732

          k = 0.0417 0.3127 0.0000 (  2666 PWs)   bands (ev):

   -14.3547 -11.7043 -10.5536  -9.8995  -7.4281  -6.8007  -5.6952  -3.0489
    -2.6028  -2.2031  -1.2707   0.1092   0.7751   0.8914   1.9501   2.5284
     6.8447   7.4941   7.9298   8.9062

          k = 0.0417 0.3608 0.0000 (  2665 PWs)   bands (ev):

   -14.2116 -12.0387 -10.6469  -9.9834  -7.1259  -6.4953  -5.1572  -3.3800
    -2.8937  -2.0352  -1.1336  -0.3438   0.4232   0.6745   1.8887   2.5116
     6.9458   7.6501   8.1183   9.4603

          k = 0.0417 0.4090 0.0000 (  2654 PWs)   bands (ev):

   -14.0483 -12.3557 -10.7222 -10.0527  -6.8205  -6.1913  -4.6115  -3.7126
    -3.1932  -1.8442  -0.9794  -0.8283   0.0802   0.4508   1.8373   2.4944
     7.0416   7.7888   8.3336  10.0275

          k = 0.0417 0.4571 0.0000 (  2648 PWs)   bands (ev):

   -13.8650 -12.6546 -10.7791 -10.1056  -6.5269  -5.9019  -4.0606  -4.0296
    -3.4830  -1.6307  -1.3376  -0.8090  -0.2499   0.2250   1.7977   2.4793
     7.1231   7.9021   8.5756  10.6010

          k = 0.0417 0.5052 0.0000 (  2654 PWs)   bands (ev):

   -13.6618 -12.9351 -10.8171 -10.1413  -6.2727  -5.6538  -4.3009  -3.7336
    -3.5074  -1.8656  -1.3951  -0.6240  -0.5642   0.0014   1.7707   2.4680
     7.1821   7.9825   8.8444   9.8094

          k = 0.0417 0.5533 0.0000 (  2656 PWs)   bands (ev):

   -13.4390 -13.1966 -10.8361 -10.1593  -6.1120  -5.4984  -4.4705  -3.8908
    -2.9547  -2.4061  -1.1382  -0.8608  -0.4258  -0.2166   1.7571   2.4622
     7.2133   8.0242   9.1397   9.4614

          k = 0.0833 0.1443 0.0000 (  2693 PWs)   bands (ev):

   -14.6724 -10.3999 -10.3999  -9.4387  -8.3977  -7.4571  -7.4571  -2.5775
    -2.1897  -1.7072  -1.7072   1.2373   1.4565   1.9898   1.9898   2.6104
     6.5187   7.2061   7.2062   7.5125

          k = 0.0833 0.1925 0.0000 (  2677 PWs)   bands (ev):

   -14.6006 -10.7799 -10.5554  -9.4251  -8.2906  -7.1889  -6.9717  -2.4927
    -2.4595  -1.8400  -1.6359   0.9740   1.3071   1.6748   1.8808   2.6773
     6.5056   7.3917   7.6067   7.6281

          k = 0.0833 0.2406 0.0000 (  2673 PWs)   bands (ev):

   -14.5083 -11.1512 -10.6949  -9.4698  -8.0937  -6.9060  -6.4664  -2.7637
    -2.3839  -2.0238  -1.5451   0.6494   1.1275   1.3321   1.7787   2.7288
     6.5208   7.5828   7.7279   8.1059

          k = 0.0833 0.2887 0.0000 (  2673 PWs)   bands (ev):

   -14.3956 -11.5091 -10.8173  -9.5397  -7.8419  -6.6116  -5.9464  -3.0930
    -2.2513  -2.2495  -1.4349   0.2714   0.9256   0.9783   1.6860   2.7656
     6.5590   7.7725   7.8760   8.6221

          k = 0.0833 0.3368 0.0000 (  2661 PWs)   bands (ev):

   -14.2626 -11.8516 -10.9218  -9.6136  -7.5590  -6.3093  -5.4148  -3.4378
    -2.5065  -2.0951  -1.3058  -0.1516   0.6239   0.7088   1.6046   2.7900
     6.6130   7.9537   8.0511   9.1639

          k = 0.0833 0.3849 0.0000 (  2663 PWs)   bands (ev):

   -14.1095 -12.1772 -11.0079  -9.6810  -7.2608  -6.0056  -4.8748  -3.7872
    -2.7826  -1.9157  -1.1592  -0.6116   0.2760   0.4822   1.5360   2.8046
     6.6746   8.1180   8.2530   9.7221

          k = 0.0833 0.4330 0.0000 (  2650 PWs)   bands (ev):

   -13.9362 -12.4851 -11.0752  -9.7366  -6.9617  -5.7100  -4.3284  -4.1273
    -3.0626  -1.7134  -1.1008  -0.9955  -0.0608   0.2525   1.4815   2.8124
     6.7348   8.2570   8.4817  10.2896

          k = 0.0833 0.4811 0.0000 (  2647 PWs)   bands (ev):

   -13.7431 -12.7747 -11.1234  -9.7777  -6.6831  -5.4408  -4.4364  -3.7788
    -3.3239  -1.6131  -1.4890  -0.8164  -0.3831   0.0236   1.4420   2.8159
     6.7854   8.3632   8.7372  10.8599

          k = 0.0833 0.5292 0.0000 (  2642 PWs)   bands (ev):

   -13.5301 -13.0457 -11.1524  -9.8028  -6.4659  -5.2351  -4.6723  -3.5264
    -3.2289  -2.1419  -1.2428  -0.6886  -0.6229  -0.2006   1.4181   2.8172
     6.8186   8.4301   9.0193   9.6628

          k = 0.0833 0.5774 0.0000 (  2640 PWs)   bands (ev):

   -13.2975 -13.2975 -11.1621  -9.8112  -6.3785  -5.1536  -4.7660  -3.6070
    -2.6819  -2.6819  -0.9756  -0.9756  -0.4170  -0.4169   1.4100   2.8175
     6.8301   8.4528   9.3278   9.3279

          k = 0.1250 0.2165 0.0000 (  2669 PWs)   bands (ev):

   -14.5185 -10.9313 -10.9313  -9.3065  -8.2711  -6.6945  -6.6945  -2.7745
    -2.3960  -1.7585  -1.7585   0.6962   1.1341   1.5489   1.5489   2.7967
     6.4397   7.7145   7.8419   7.8419

          k = 0.1250 0.2646 0.0000 (  2664 PWs)   bands (ev):

   -14.4161 -11.2959 -11.0650  -9.2660  -8.1425  -6.4055  -6.1835  -3.1151
    -2.2754  -1.9315  -1.6572   0.3640   0.9321   1.1988   1.4350   2.8998
     6.4006   7.8491   8.0537   8.3374

          k = 0.1250 0.3127 0.0000 (  2665 PWs)   bands (ev):

   -14.2933 -11.6459 -11.1804  -9.2831  -7.9277  -6.1078  -5.6599  -3.4723
    -2.1454  -2.1311  -1.5368  -0.0171   0.7102   0.8434   1.3349   2.9851
     6.3851   8.0108   8.2572   8.8632

          k = 0.1250 0.3608 0.0000 (  2667 PWs)   bands (ev):

   -14.1503 -11.9798 -11.2772  -9.3251  -7.6632  -5.8066  -5.1269  -3.8363
    -2.3890  -1.9634  -1.3977  -0.4405   0.4771   0.4916   1.2496   3.0525
     6.3888   8.1993   8.4446   9.4091

          k = 0.1250 0.4090 0.0000 (  2655 PWs)   bands (ev):

   -13.9872 -12.2963 -11.3549  -9.3712  -7.3766  -5.5087  -4.5872  -4.1955
    -2.6487  -1.7727  -1.2405  -0.8991   0.1489   0.2392   1.1803   3.1028
     6.4047   8.4147   8.6081   9.9668

          k = 0.1250 0.4571 0.0000 (  2647 PWs)   bands (ev):

   -13.8040 -12.5949 -11.4133  -9.4110  -7.0912  -5.2276  -4.5332  -4.0434
    -2.9060  -1.5595  -1.3863  -1.0669  -0.1807   0.0013   1.1276   3.1381
     6.4256   8.6569   8.7399  10.5295

          k = 0.1250 0.5052 0.0000 (  2641 PWs)   bands (ev):

   -13.6011 -12.8750 -11.4524  -9.4395  -6.8393  -4.9888  -4.8193  -3.4987
    -3.1314  -1.8957  -1.3243  -0.8777  -0.4946  -0.2326   1.0923   3.1602
     6.4442   8.8324   8.9257   9.8910

          k = 0.1250 0.5533 0.0000 (  2647 PWs)   bands (ev):

   -13.3784 -13.1363 -11.4719  -9.4542  -6.6787  -4.9971  -4.8409  -3.2735
    -2.9566  -2.4208  -1.0679  -0.7908  -0.6743  -0.4586   1.0745   3.1708
     6.4547   8.8802   9.2211   9.5429

          k = 0.1667 0.2887 0.0000 (  2661 PWs)   bands (ev):

   -14.3036 -11.4220 -11.4220  -9.1216  -8.1020  -5.8912  -5.8911  -3.4838
    -2.1431  -1.8193  -1.8193   0.0330   0.7059   1.0808   1.0808   3.0566
     6.3029   7.9973   8.5606   8.5606

          k = 0.1667 0.3368 0.0000 (  2664 PWs)   bands (ev):

   -14.1708 -11.7636 -11.5293  -9.0545  -7.9574  -5.5936  -5.3669  -3.8608
    -2.0210  -1.9873  -1.6877  -0.3414   0.4610   0.7264   0.9794   3.1950
     6.2271   8.1725   8.7691   9.0907

          k = 0.1667 0.3849 0.0000 (  2666 PWs)   bands (ev):

   -14.0178 -12.0886 -11.6173  -9.0445  -7.7338  -5.2963  -4.8353  -4.2359
    -2.2503  -1.8084  -1.5373  -0.7557   0.2079   0.3786   0.8953   3.3115
     6.1718   8.3745   8.9552   9.6355

          k = 0.1667 0.4330 0.0000 (  2654 PWs)   bands (ev):

   -13.8447 -12.3959 -11.6861  -9.0598  -7.4726  -5.0090  -4.5957  -4.2994
    -2.4913  -1.6066  -1.3689  -1.2048  -0.0459   0.0423   0.8293   3.4035
     6.1349   8.6034   9.1113  10.1875

          k = 0.1667 0.4811 0.0000 (  2643 PWs)   bands (ev):

   -13.6518 -12.6850 -11.7352  -9.0797  -7.2135  -4.9184  -4.7498  -3.7626
    -2.7213  -1.6830  -1.3827  -1.1830  -0.2947  -0.2794   0.7818   3.4696
     6.1122   8.8589   9.2297  10.7407

          k = 0.1667 0.5292 0.0000 (  2644 PWs)   bands (ev):

   -13.4391 -12.9554 -11.7648  -9.0945  -7.0058  -5.1620  -4.5538  -3.2281
    -2.9016  -2.1833  -1.1371  -0.9814  -0.5842  -0.5354   0.7532   3.5093
     6.1003   9.1411   9.3035   9.7847

          k = 0.1667 0.5774 0.0000 (  2642 PWs)   bands (ev):

   -13.2069 -13.2069 -11.7746  -9.0999  -6.9215  -5.2580  -4.4769  -2.9735
    -2.7002  -2.7001  -0.8705  -0.8705  -0.7652  -0.7651   0.7436   3.5225
     6.0969   9.3289   9.4497   9.4498

          k = 0.2083 0.3608 0.0000 (  2653 PWs)   bands (ev):

   -14.0280 -11.8620 -11.8620  -8.8843  -7.9044  -5.0718  -5.0718  -4.2493
    -1.8767  -1.8767  -1.8202  -0.7019   0.1916   0.6279   0.6279   3.3895
     6.0858   8.3611   9.2980   9.2981

          k = 0.2083 0.4090 0.0000 (  2647 PWs)   bands (ev):

   -13.8651 -12.1777 -11.9410  -8.7910  -7.7572  -4.7822  -4.6263  -4.5460
    -2.0905  -1.7130  -1.6302  -1.0985  -0.0854   0.2857   0.5483   3.5615
     5.9643   8.5766   9.4771   9.8361

          k = 0.2083 0.4571 0.0000 (  2644 PWs)   bands (ev):

   -13.6822 -12.4756 -12.0004  -8.7562  -7.5482  -4.9754  -4.5111  -4.0191
    -2.3100  -1.5304  -1.5293  -1.4177  -0.3594  -0.0433   0.4883   3.7030
     5.8656   8.8189   9.6203  10.3771

          k = 0.2083 0.5052 0.0000 (  2652 PWs)   bands (ev):

   -13.4796 -12.7551 -12.0400  -8.7486  -7.3366  -5.2663  -4.2833  -3.4955
    -2.5063  -1.9904  -1.3294  -1.1833  -0.6239  -0.3564   0.4481   3.8048
     5.7946   9.0878   9.7205  10.0531

          k = 0.2083 0.5533 0.0000 (  2657 PWs)   bands (ev):

   -13.2574 -13.0158 -12.0598  -8.7486  -7.1950  -5.4439  -4.1436  -2.9793
    -2.6313  -2.4757  -1.1105  -0.9278  -0.8748  -0.6517   0.4279   3.8585
     5.7571   9.3832   9.7051   9.7720

          k = 0.2500 0.4330 0.0000 (  2637 PWs)   bands (ev):

   -13.6924 -12.2473 -12.2473  -8.5946  -7.7140  -4.9940  -4.2684  -4.2684
    -1.9093  -1.9093  -1.4713  -1.4294  -0.3881   0.2130   0.2130   3.7943
     5.7699   8.8055  10.0032  10.0032

          k = 0.2500 0.4811 0.0000 (  2649 PWs)   bands (ev):

   -13.4999 -12.5355 -12.2971  -8.4775  -7.6022  -5.3165  -4.0204  -3.7589
    -2.1036  -1.8762  -1.7068  -1.2065  -0.6868  -0.1078   0.1607   3.9958
     5.5985   9.0611  10.1292  10.5282

          k = 0.2500 0.5292 0.0000 (  2659 PWs)   bands (ev):

   -13.2877 -12.8053 -12.3269  -8.4261  -7.4739  -5.5530  -3.8350  -3.2592
    -2.3120  -2.2588  -1.4832  -0.9720  -0.9620  -0.4115   0.1293   4.1417
     5.4720   9.3433   9.9868  10.2077

          k = 0.2500 0.5774 0.0000 (  2658 PWs)   bands (ev):

   -13.0561 -13.0561 -12.3369  -8.4126  -7.4157  -5.6437  -3.7629  -2.7748
    -2.7748  -2.3209  -1.2382  -1.2381  -0.6966  -0.6966   0.1188   4.1971
     5.4233   9.6519   9.6520  10.2346

          k = 0.2917 0.5052 0.0000 (  2651 PWs)   bands (ev):

   -13.2978 -12.5755 -12.5755  -8.2530  -7.6331  -5.5885  -3.5427  -3.5426
    -2.2495  -1.8707  -1.8707  -1.0127  -0.9735  -0.1508  -0.1508   4.2695
     5.3438   9.3300  10.2949  10.6335

          k = 0.2917 0.5533 0.0000 (  2661 PWs)   bands (ev):

   -13.0763 -12.8354 -12.5955  -8.1247  -7.6434  -5.7464  -3.4115  -3.0846
    -2.6522  -1.9766  -1.6103  -1.3232  -0.7193  -0.4446  -0.1725   4.4784
     5.1447   9.6254   9.9471  10.2684

          k = 0.3333 0.5774 0.0000 (  2676 PWs)   bands (ev):

   -12.8454 -12.8454 -12.8454  -7.8600  -7.8599  -5.8156  -3.0175  -3.0174
    -3.0174  -1.6623  -1.6623  -1.6622  -0.4557  -0.4557  -0.4557   4.8131
     4.8131   9.9338   9.9338  11.1564

     the Fermi energy is     4.8131 ev

!    total energy              =    -147.45514546 Ry

     total all-electron energy =      -609.567923 Ry
     estimated scf accuracy    <          9.6E-09 Ry
     smearing contrib. (-TS)   =      -0.00003977 Ry
     internal energy E=F+TS    =    -147.45510570 Ry

     The total energy is F=E-TS. E is the sum of the following terms:
     one-electron contribution =     -67.93195417 Ry
     hartree contribution      =      48.15501414 Ry
     xc contribution           =     -37.19997389 Ry
     ewald contribution        =     -41.14605013 Ry
     one-center paw contrib.   =     -49.33214165 Ry

     convergence has been achieved in   8 iterations

     Writing output data file ./outdir/graphene.save/
 
     init_run     :      1.15s CPU      1.34s WALL (       1 calls)
     electrons    :     15.75s CPU     17.02s WALL (       1 calls)

     Called by init_run:
     wfcinit      :      0.74s CPU      0.82s WALL (       1 calls)
     potinit      :      0.12s CPU      0.14s WALL (       1 calls)
     hinit0       :      0.12s CPU      0.21s WALL (       1 calls)

     Called by electrons:
     c_bands      :     12.73s CPU     13.87s WALL (       8 calls)
     sum_band     :      2.12s CPU      2.22s WALL (       8 calls)
     v_of_rho     :      0.32s CPU      0.32s WALL (       9 calls)
     newd         :      0.14s CPU      0.14s WALL (       9 calls)
     PAW_pot      :      0.46s CPU      0.47s WALL (       9 calls)
     mix_rho      :      0.04s CPU      0.05s WALL (       8 calls)

     Called by c_bands:
     init_us_2    :      0.34s CPU      0.36s WALL (    1037 calls)
     cegterg      :     11.91s CPU     12.99s WALL (     488 calls)

     Called by *egterg:
     cdiaghg      :      0.79s CPU      0.87s WALL (    1972 calls)
     h_psi        :      9.70s CPU     10.58s WALL (    2033 calls)
     s_psi        :      0.33s CPU      0.35s WALL (    2033 calls)
     g_psi        :      0.03s CPU      0.03s WALL (    1484 calls)

     Called by h_psi:
     h_psi:calbec :      0.86s CPU      0.94s WALL (    2033 calls)
     vloc_psi     :      8.16s CPU      8.84s WALL (    2033 calls)
     add_vuspsi   :      0.57s CPU      0.66s WALL (    2033 calls)

     General routines
     calbec       :      1.08s CPU      1.17s WALL (    2521 calls)
     fft          :      0.19s CPU      0.25s WALL (     115 calls)
     ffts         :      0.01s CPU      0.01s WALL (      17 calls)
     fftw         :      8.55s CPU      9.25s WALL (   68752 calls)
     interpolate  :      0.02s CPU      0.02s WALL (       9 calls)
 
     Parallel routines
     fft_scatt_xy :      0.98s CPU      1.04s WALL (   68884 calls)
     fft_scatt_yz :      2.71s CPU      3.06s WALL (   68884 calls)
 
     PWSCF        :     17.57s CPU     19.42s WALL

 
   This run was terminated on:   2:38:32  17Oct2020            

=------------------------------------------------------------------------------=
   JOB DONE.
=------------------------------------------------------------------------------=
