
     Program PWSCF v.6.6 starts on  5Sep2020 at 19:53: 5 

     This program is part of the open-source Quantum ESPRESSO suite
     for quantum simulation of materials; please cite
         "P. Giannozzi et al., J. Phys.:Condens. Matter 21 395502 (2009);
         "P. Giannozzi et al., J. Phys.:Condens. Matter 29 465901 (2017);
          URL http://www.quantum-espresso.org", 
     in publications or presentations arising from this work. More details at
     http://www.quantum-espresso.org/quote

     Parallel version (MPI), running on    44 processors

     MPI processes distributed on     1 nodes
     R & G space division:  proc/nbgrp/npool/nimage =      44
     Fft bands division:     nmany     =       1
     Reading input from 1-nscf.in

     Current dimensions of program PWSCF are:
     Max number of different atomic species (ntypx) = 10
     Max number of k-points (npk) =  40000
     Max angular momentum in pseudopotentials (lmaxx) =  3

     Atomic positions and unit cell read from directory:
     ./outdir/nbse2.save/
     Atomic positions from file used, from input discarded
 
     file Nb.pbe-spn-kjpaw_psl.0.3.0.UPF: wavefunction(s)  4S 4P renormalized

     Subspace diagonalization in iterative solution of the eigenvalue problem:
     a serial algorithm will be used

     Found symmetry operation: I + ( -0.0000  0.3333  0.0000)
     This is a supercell, fractional translations are disabled
 
     Parallelization info
     --------------------
     sticks:   dense  smooth     PW     G-vecs:    dense   smooth      PW
     Min         141      73     19                20035     7547    1045
     Max         142      74     20                20043     7556    1060
     Sum        6205    3253    859               881733   332337   46237
 


     bravais-lattice index     =            4
     lattice parameter (alat)  =      19.7820  a.u.
     unit-cell volume          =   14965.4900 (a.u.)^3
     number of atoms/cell      =           27
     number of atomic types    =            2
     number of electrons       =       225.00
     number of Kohn-Sham states=          136
     kinetic-energy cutoff     =      30.0000  Ry
     charge density cutoff     =     230.0000  Ry
     Exchange-correlation= SLA  PW   PBE  PBE
                           (   1   4   3   4   0   0   0)

     celldm(1)=  19.782031  celldm(2)=   0.000000  celldm(3)=   2.232275
     celldm(4)=   0.000000  celldm(5)=   0.000000  celldm(6)=   0.000000

     crystal axes: (cart. coord. in units of alat)
               a(1) = (   1.000000   0.000000   0.000000 )  
               a(2) = (  -0.500000   0.866025   0.000000 )  
               a(3) = (   0.000000   0.000000   2.232275 )  

     reciprocal axes: (cart. coord. in units 2 pi/alat)
               b(1) = (  1.000000  0.577350  0.000000 )  
               b(2) = (  0.000000  1.154701  0.000000 )  
               b(3) = (  0.000000  0.000000  0.447974 )  


     PseudoPot. # 1 for Nb read from file:
     /home/sinan/q-e/SSSP_precision_pseudos/Nb.pbe-spn-kjpaw_psl.0.3.0.UPF
     MD5 check sum: 411d72ad547312f8017e2943ceca08cc
     Pseudo is Projector augmented-wave + core cor, Zval = 13.0
     Generated using "atomic" code by A. Dal Corso v.5.0.99 svn rev. 10869
     Shape of augmentation charge: PSQ
     Using radial grid of 1227 points,  6 beta functions with: 
                l(1) =   0
                l(2) =   0
                l(3) =   1
                l(4) =   1
                l(5) =   2
                l(6) =   2
     Q(r) pseudized with 0 coefficients 


     PseudoPot. # 2 for Se read from file:
     /home/sinan/q-e/SSSP_precision_pseudos/Se_pbe_v1.uspp.F.UPF
     MD5 check sum: 1b3568f3a8ae88f9a2a0ad0698632c85
     Pseudo is Ultrasoft + core correction, Zval =  6.0
     Generated by new atomic code, or converted to UPF format
     Using radial grid of  877 points,  6 beta functions with: 
                l(1) =   0
                l(2) =   0
                l(3) =   1
                l(4) =   1
                l(5) =   2
                l(6) =   2
     Q(r) pseudized with  8 coefficients,  rinner =    1.300   1.300   1.300
                                                       1.300   1.300

     atomic species   valence    mass     pseudopotential
        Nb            13.00    92.90638     Nb( 1.00)
        Se             6.00    78.96000     Se( 1.00)

     12 Sym. Ops. (no inversion) found



   Cartesian axes

     site n.     atom                  positions (alat units)
         1           Se  tau(   1) = (   0.0000000   0.1924503   1.2770040  )
         2           Nb  tau(   2) = (   0.0000000   0.0000000   1.1161391  )
         3           Se  tau(   3) = (   0.0000000   0.1924503   0.9552741  )
         4           Se  tau(   4) = (  -0.1666667   0.4811254   1.2770040  )
         5           Nb  tau(   5) = (  -0.1666667   0.2886751   1.1161391  )
         6           Se  tau(   6) = (  -0.1666667   0.4811254   0.9552741  )
         7           Se  tau(   7) = (  -0.3333333   0.7698005   1.2770040  )
         8           Nb  tau(   8) = (  -0.3333333   0.5773503   1.1161391  )
         9           Se  tau(   9) = (  -0.3333333   0.7698005   0.9552741  )
        10           Se  tau(  10) = (   0.3333333   0.1924503   1.2770040  )
        11           Nb  tau(  11) = (   0.3333333   0.0000000   1.1161391  )
        12           Se  tau(  12) = (   0.3333333   0.1924503   0.9552741  )
        13           Se  tau(  13) = (   0.1666667   0.4811254   1.2770040  )
        14           Nb  tau(  14) = (   0.1666667   0.2886751   1.1161391  )
        15           Se  tau(  15) = (   0.1666667   0.4811254   0.9552741  )
        16           Se  tau(  16) = (   0.0000000   0.7698005   1.2770040  )
        17           Nb  tau(  17) = (   0.0000000   0.5773503   1.1161391  )
        18           Se  tau(  18) = (   0.0000000   0.7698005   0.9552741  )
        19           Se  tau(  19) = (   0.6666667   0.1924503   1.2770040  )
        20           Nb  tau(  20) = (   0.6666667   0.0000000   1.1161391  )
        21           Se  tau(  21) = (   0.6666667   0.1924503   0.9552741  )
        22           Se  tau(  22) = (   0.5000000   0.4811254   1.2770040  )
        23           Nb  tau(  23) = (   0.5000000   0.2886751   1.1161391  )
        24           Se  tau(  24) = (   0.5000000   0.4811254   0.9552741  )
        25           Se  tau(  25) = (   0.3333333   0.7698005   1.2770040  )
        26           Nb  tau(  26) = (   0.3333333   0.5773503   1.1161391  )
        27           Se  tau(  27) = (   0.3333333   0.7698005   0.9552741  )

     number of k points=    30 (tetrahedron method)
                       cart. coord. in units 2pi/alat
        k(    1) = (   0.0000000   0.0000000   0.0000000), wk =   0.0078125
        k(    2) = (   0.0000000   0.0721688   0.0000000), wk =   0.0468750
        k(    3) = (   0.0000000   0.1443376   0.0000000), wk =   0.0468750
        k(    4) = (   0.0000000   0.2165064   0.0000000), wk =   0.0468750
        k(    5) = (   0.0000000   0.2886751   0.0000000), wk =   0.0468750
        k(    6) = (   0.0000000   0.3608439   0.0000000), wk =   0.0468750
        k(    7) = (   0.0000000   0.4330127   0.0000000), wk =   0.0468750
        k(    8) = (   0.0000000   0.5051815   0.0000000), wk =   0.0468750
        k(    9) = (   0.0000000  -0.5773503   0.0000000), wk =   0.0234375
        k(   10) = (   0.0625000   0.1082532   0.0000000), wk =   0.0468750
        k(   11) = (   0.0625000   0.1804220   0.0000000), wk =   0.0937500
        k(   12) = (   0.0625000   0.2525907   0.0000000), wk =   0.0937500
        k(   13) = (   0.0625000   0.3247595   0.0000000), wk =   0.0937500
        k(   14) = (   0.0625000   0.3969283   0.0000000), wk =   0.0937500
        k(   15) = (   0.0625000   0.4690971   0.0000000), wk =   0.0937500
        k(   16) = (   0.0625000   0.5412659   0.0000000), wk =   0.0937500
        k(   17) = (   0.1250000   0.2165064   0.0000000), wk =   0.0468750
        k(   18) = (   0.1250000   0.2886751   0.0000000), wk =   0.0937500
        k(   19) = (   0.1250000   0.3608439   0.0000000), wk =   0.0937500
        k(   20) = (   0.1250000   0.4330127   0.0000000), wk =   0.0937500
        k(   21) = (   0.1250000   0.5051815   0.0000000), wk =   0.0937500
        k(   22) = (   0.1250000   0.5773503   0.0000000), wk =   0.0468750
        k(   23) = (   0.1875000   0.3247595   0.0000000), wk =   0.0468750
        k(   24) = (   0.1875000   0.3969283   0.0000000), wk =   0.0937500
        k(   25) = (   0.1875000   0.4690971   0.0000000), wk =   0.0937500
        k(   26) = (   0.1875000   0.5412659   0.0000000), wk =   0.0937500
        k(   27) = (   0.2500000   0.4330127   0.0000000), wk =   0.0468750
        k(   28) = (   0.2500000   0.5051815   0.0000000), wk =   0.0937500
        k(   29) = (   0.2500000   0.5773503   0.0000000), wk =   0.0468750
        k(   30) = (   0.3125000   0.5412659   0.0000000), wk =   0.0468750

     Dense  grid:   881733 G-vectors     FFT dimensions: (  96,  96, 216)

     Smooth grid:   332337 G-vectors     FFT dimensions: (  72,  72, 160)

     Estimated max dynamical RAM per process >      80.22 MB

     Estimated total dynamical RAM >       3.45 GB

     Check: negative core charge=   -0.000003

     The potential is recalculated from file :
     ./outdir/nbse2.save/charge-density


     negative rho (up, down):  1.929E-02 0.000E+00
     Starting wfcs are  162 randomized atomic wfcs
     Checking if some PAW data can be deallocated... 

     Band Structure Calculation
     Davidson diagonalization with overlap
     c_bands:  1 eigenvalues not converged
     c_bands:  1 eigenvalues not converged
     c_bands:  1 eigenvalues not converged
     c_bands:  1 eigenvalues not converged
     c_bands:  1 eigenvalues not converged
     c_bands:  1 eigenvalues not converged
     c_bands:  1 eigenvalues not converged
     c_bands:  1 eigenvalues not converged
     c_bands:  1 eigenvalues not converged
     c_bands:  1 eigenvalues not converged

     ethr =  4.44E-12,  avg # of iterations =105.2

     total cpu time spent up to now is     1266.8 secs

     End of band structure calculation

          k = 0.0000 0.0000 0.0000 ( 41489 PWs)   bands (ev):

   -56.7057 -56.6931 -56.6912 -56.6912 -56.6912 -56.6912 -56.6897 -56.6840
   -56.6829 -32.8486 -32.8486 -32.8468 -32.8468 -32.8460 -32.8459 -32.8446
   -32.8446 -32.8158 -32.8158 -32.7714 -32.7349 -32.7333 -32.7333 -32.7333
   -32.7333 -32.7313 -32.7142 -32.7137 -32.7133 -32.7133 -32.7125 -32.7124
   -32.7114 -32.7114 -32.6728 -32.6728 -15.1267 -14.1874 -14.1874 -14.1873
   -14.1866 -14.1866 -14.1866 -14.1778 -13.7517 -13.7517 -13.7517 -13.7509
   -13.7509 -13.7509 -13.6234 -13.6234 -13.4811 -13.4811  -6.3938  -5.9259
    -5.9258  -5.9258  -5.9256  -5.9256  -5.9256  -5.9107  -5.9107  -5.4838
    -5.4838  -5.0688  -5.0688  -5.0686  -5.0682  -5.0681  -5.0681  -5.0141
    -5.0141  -5.0022  -5.0022  -5.0022  -5.0017  -5.0017  -5.0017  -4.6727
    -4.6727  -4.0407  -4.0407  -3.6804  -3.6804  -3.6803  -3.6799  -3.6797
    -3.6797  -3.4276  -3.4276  -3.2311  -3.2311  -2.9700  -2.8638  -2.8638
    -2.8638  -2.8632  -2.8632  -2.8632  -2.5995  -2.5992  -2.5992  -2.5991
    -2.5991  -2.5989  -2.4786  -2.4786  -1.9318  -1.9315  -1.9315  -1.9310
    -1.9310  -1.9306  -1.0632  -1.0632  -0.9987   0.3121   0.3122   0.8403
     0.8403   0.8407   0.8408   0.8414   0.8414   0.9730   0.9733   0.9733
     0.9737   0.9737   0.9741   1.2883   1.2883   1.4624   1.4624   1.7025

          k = 0.0000 0.0722 0.0000 ( 41565 PWs)   bands (ev):

   -56.7056 -56.6934 -56.6918 -56.6918 -56.6908 -56.6908 -56.6895 -56.6840
   -56.6829 -32.8584 -32.8525 -32.8523 -32.8499 -32.8498 -32.8394 -32.8392
   -32.8325 -32.8134 -32.8134 -32.7712 -32.7367 -32.7347 -32.7346 -32.7318
   -32.7318 -32.7299 -32.7155 -32.7147 -32.7143 -32.7143 -32.7139 -32.7115
   -32.7111 -32.7092 -32.6738 -32.6730 -15.1219 -14.2703 -14.2260 -14.2260
   -14.1756 -14.1446 -14.1446 -14.1076 -13.7885 -13.7686 -13.7686 -13.7323
   -13.7323 -13.7160 -13.6268 -13.6268 -13.4828 -13.4828  -6.3873  -6.0438
    -5.9816  -5.9816  -5.9044  -5.9044  -5.8659  -5.8659  -5.8155  -5.5261
    -5.5260  -5.1340  -5.0942  -5.0818  -5.0818  -5.0703  -5.0703  -5.0505
    -5.0505  -5.0355  -4.9689  -4.9689  -4.9324  -4.9324  -4.8597  -4.6640
    -4.6640  -4.0455  -4.0455  -3.7452  -3.7286  -3.7286  -3.6625  -3.6625
    -3.6081  -3.4444  -3.4225  -3.2225  -3.2225  -2.9936  -2.9009  -2.8730
    -2.8730  -2.8304  -2.8304  -2.8200  -2.6599  -2.6478  -2.6478  -2.5947
    -2.5947  -2.5447  -2.4883  -2.4654  -1.9445  -1.9293  -1.9293  -1.9091
    -1.9090  -1.8979  -1.0768  -1.0768  -1.0020   0.3291   0.3292   0.8279
     0.8281   0.8285   0.8288   0.8367   0.8510   0.9238   0.9633   0.9633
     1.0065   1.0066   1.0245   1.2746   1.2990   1.4401   1.4562   1.5981

          k = 0.0000 0.1443 0.0000 ( 41528 PWs)   bands (ev):

   -56.7054 -56.6942 -56.6923 -56.6922 -56.6902 -56.6901 -56.6888 -56.6841
   -56.6829 -32.8694 -32.8580 -32.8579 -32.8540 -32.8540 -32.8327 -32.8325
   -32.8185 -32.8074 -32.8073 -32.7705 -32.7396 -32.7359 -32.7358 -32.7302
   -32.7302 -32.7276 -32.7182 -32.7175 -32.7171 -32.7147 -32.7142 -32.7113
   -32.7111 -32.7060 -32.6769 -32.6737 -15.1077 -14.3561 -14.2611 -14.2610
   -14.1691 -14.0995 -14.0995 -14.0341 -13.8271 -13.7840 -13.7840 -13.7119
   -13.7119 -13.6835 -13.6367 -13.6367 -13.4879 -13.4879  -6.3679  -6.1583
    -6.0305  -6.0305  -5.8855  -5.8855  -5.8050  -5.8050  -5.7326  -5.6185
    -5.6184  -5.2532  -5.1377  -5.1377  -5.0937  -5.0899  -5.0898  -5.0287
    -5.0287  -5.0048  -4.8808  -4.8807  -4.8609  -4.8609  -4.7095  -4.6251
    -4.6251  -4.0585  -4.0585  -3.8024  -3.7956  -3.7956  -3.6777  -3.6777
    -3.5292  -3.4955  -3.4085  -3.1978  -3.1978  -3.0570  -2.9319  -2.8678
    -2.8677  -2.7718  -2.7718  -2.7704  -2.7254  -2.7239  -2.7239  -2.6406
    -2.6406  -2.5170  -2.4968  -2.4344  -1.9382  -1.8990  -1.8989  -1.8729
    -1.8728  -1.8442  -1.1158  -1.1158  -1.0124   0.3781   0.3782   0.7901
     0.7901   0.8148   0.8149   0.8404   0.8704   0.8790   0.9792   0.9792
     1.0465   1.0465   1.0776   1.2359   1.3302   1.3775   1.4370   1.4911

          k = 0.0000 0.2165 0.0000 ( 41518 PWs)   bands (ev):

   -56.7050 -56.6952 -56.6928 -56.6927 -56.6897 -56.6895 -56.6882 -56.6843
   -56.6830 -32.8791 -32.8630 -32.8630 -32.8589 -32.8588 -32.8261 -32.8260
   -32.8040 -32.7995 -32.7994 -32.7695 -32.7428 -32.7370 -32.7370 -32.7286
   -32.7285 -32.7254 -32.7216 -32.7214 -32.7199 -32.7152 -32.7147 -32.7118
   -32.7116 -32.7027 -32.6818 -32.6749 -15.0842 -14.4426 -14.2916 -14.2916
   -14.1584 -14.0524 -14.0524 -13.9681 -13.8661 -13.7974 -13.7974 -13.6904
   -13.6904 -13.6544 -13.6530 -13.6530 -13.4964 -13.4964  -6.3361  -6.2627
    -6.0705  -6.0705  -5.8548  -5.8548  -5.7466  -5.7466  -5.7220  -5.7219
    -5.6993  -5.3576  -5.2055  -5.2055  -5.0922  -5.0921  -5.0441  -5.0038
    -5.0038  -4.9802  -4.8224  -4.8224  -4.7879  -4.7878  -4.5539  -4.5234
    -4.5234  -4.0768  -4.0768  -3.8702  -3.8701  -3.8513  -3.7209  -3.7209
    -3.5769  -3.4445  -3.3853  -3.1605  -3.1605  -3.1470  -2.9572  -2.8581
    -2.8581  -2.8123  -2.8123  -2.7947  -2.7316  -2.7315  -2.7150  -2.6952
    -2.6952  -2.5631  -2.4560  -2.3994  -1.9168  -1.8483  -1.8482  -1.8329
    -1.8328  -1.7722  -1.1742  -1.1742  -1.0318   0.4502   0.4503   0.7430
     0.7430   0.8106   0.8107   0.8423   0.8491   0.8989   1.0030   1.0031
     1.0820   1.0821   1.1298   1.1811   1.2895   1.3806   1.3855   1.4060

          k = 0.0000 0.2887 0.0000 ( 41486 PWs)   bands (ev):

   -56.7045 -56.6964 -56.6931 -56.6930 -56.6892 -56.6889 -56.6876 -56.6845
   -56.6831 -32.8872 -32.8672 -32.8671 -32.8635 -32.8634 -32.8200 -32.8199
   -32.7910 -32.7908 -32.7887 -32.7680 -32.7461 -32.7380 -32.7379 -32.7269
   -32.7269 -32.7264 -32.7264 -32.7236 -32.7219 -32.7158 -32.7153 -32.7129
   -32.7127 -32.6993 -32.6886 -32.6764 -15.0517 -14.5284 -14.3173 -14.3172
   -14.1435 -14.0042 -14.0042 -13.9113 -13.9049 -13.8086 -13.8086 -13.6755
   -13.6755 -13.6681 -13.6681 -13.6295 -13.5079 -13.5079  -6.3528  -6.2923
    -6.0994  -6.0994  -5.8205  -5.8205  -5.8126  -5.8126  -5.7198  -5.6942
    -5.6942  -5.4456  -5.2747  -5.2746  -5.0889  -5.0889  -4.9768  -4.9768
    -4.9627  -4.9406  -4.8062  -4.8062  -4.7140  -4.7140  -4.3954  -4.3638
    -4.3638  -4.0965  -4.0964  -3.9426  -3.9426  -3.8921  -3.7822  -3.7822
    -3.6853  -3.3548  -3.3527  -3.2536  -3.1144  -3.1143  -2.9772  -2.9009
    -2.9009  -2.8660  -2.8574  -2.8574  -2.8518  -2.8518  -2.6551  -2.6243
    -2.6120  -2.6119  -2.4227  -2.3716  -1.8866  -1.7955  -1.7955  -1.7883
    -1.7883  -1.6859  -1.2437  -1.2437  -1.0605   0.5354   0.5355   0.6971
     0.6971   0.8156   0.8188   0.8189   0.8599   0.9361   1.0262   1.0262
     1.1123   1.1124   1.1226   1.1775   1.1896   1.2855   1.3654   1.3714

          k = 0.0000 0.3608 0.0000 ( 41530 PWs)   bands (ev):

   -56.7038 -56.6975 -56.6934 -56.6933 -56.6887 -56.6882 -56.6873 -56.6849
   -56.6833 -32.8938 -32.8705 -32.8704 -32.8675 -32.8674 -32.8147 -32.8146
   -32.7818 -32.7817 -32.7739 -32.7662 -32.7494 -32.7387 -32.7386 -32.7323
   -32.7323 -32.7254 -32.7253 -32.7235 -32.7223 -32.7168 -32.7161 -32.7142
   -32.7141 -32.6971 -32.6959 -32.6784 -15.0104 -14.6122 -14.3376 -14.3376
   -14.1246 -13.9556 -13.9556 -13.9429 -13.8652 -13.8174 -13.8174 -13.7036
   -13.7036 -13.6453 -13.6453 -13.6095 -13.5222 -13.5222  -6.4260  -6.2373
    -6.1160  -6.1160  -5.9074  -5.9074  -5.7766  -5.7612  -5.7612  -5.6511
    -5.6511  -5.5158  -5.3454  -5.3454  -5.0813  -5.0813  -4.9514  -4.9488
    -4.9488  -4.8104  -4.8103  -4.7996  -4.6421  -4.6421  -4.2365  -4.1762
    -4.1762  -4.1136  -4.1136  -4.0065  -4.0064  -3.9240  -3.8516  -3.8516
    -3.8161  -3.3723  -3.3122  -3.2605  -3.0641  -3.0641  -3.0098  -3.0098
    -2.9925  -2.9808  -2.9808  -2.9385  -2.8538  -2.8538  -2.6985  -2.5925
    -2.5335  -2.5335  -2.3971  -2.3579  -1.8541  -1.7641  -1.7640  -1.7259
    -1.7259  -1.5900  -1.3182  -1.3181  -1.1012   0.6239   0.6240   0.6570
     0.6570   0.8015   0.8364   0.8364   0.8698   0.9800   1.0452   1.0453
     1.0698   1.0895   1.1397   1.1397   1.1955   1.2164   1.2818   1.2818

          k = 0.0000 0.4330 0.0000 ( 41588 PWs)   bands (ev):

   -56.7031 -56.6987 -56.6936 -56.6935 -56.6882 -56.6877 -56.6871 -56.6854
   -56.6835 -32.8986 -32.8728 -32.8727 -32.8705 -32.8704 -32.8105 -32.8104
   -32.7726 -32.7725 -32.7641 -32.7592 -32.7526 -32.7393 -32.7392 -32.7391
   -32.7391 -32.7246 -32.7239 -32.7237 -32.7213 -32.7179 -32.7170 -32.7155
   -32.7154 -32.7071 -32.6925 -32.6806 -14.9609 -14.6926 -14.3523 -14.3523
   -14.1020 -13.9795 -13.9075 -13.9075 -13.8313 -13.8238 -13.8238 -13.7368
   -13.7368 -13.6225 -13.6225 -13.5948 -13.5390 -13.5390  -6.4797  -6.1722
    -6.1191  -6.1190  -5.9806  -5.9805  -5.8520  -5.7014  -5.7014  -5.6196
    -5.6196  -5.5667  -5.4181  -5.4181  -5.0720  -5.0720  -4.9446  -4.9205
    -4.9205  -4.8242  -4.8242  -4.6384  -4.5773  -4.5773  -4.1250  -4.1250
    -4.0794  -4.0582  -4.0581  -3.9762  -3.9762  -3.9645  -3.9467  -3.9181
    -3.9181  -3.5002  -3.2636  -3.1824  -3.1824  -3.1640  -3.0442  -3.0442
    -3.0132  -3.0132  -3.0104  -3.0030  -2.8664  -2.8663  -2.7824  -2.5301
    -2.4697  -2.4696  -2.3789  -2.3618  -1.8245  -1.7410  -1.7409  -1.6630
    -1.6630  -1.4904  -1.3928  -1.3928  -1.1545   0.6260   0.6260   0.7077
     0.7078   0.8023   0.8536   0.8536   0.8791   0.9974   1.0304   1.0324
     1.0585   1.0586   1.1201   1.1712   1.1712   1.2091   1.2092   1.2484

          k = 0.0000 0.5052 0.0000 ( 41578 PWs)   bands (ev):

   -56.7022 -56.6998 -56.6937 -56.6936 -56.6878 -56.6870 -56.6870 -56.6859
   -56.6836 -32.9015 -32.8741 -32.8740 -32.8725 -32.8723 -32.8078 -32.8077
   -32.7635 -32.7635 -32.7616 -32.7557 -32.7466 -32.7466 -32.7449 -32.7396
   -32.7395 -32.7253 -32.7225 -32.7221 -32.7209 -32.7192 -32.7190 -32.7178
   -32.7165 -32.7159 -32.6893 -32.6832 -14.9036 -14.7687 -14.3612 -14.3612
   -14.0758 -14.0142 -13.8607 -13.8607 -13.8276 -13.8276 -13.8105 -13.7746
   -13.7746 -13.6001 -13.6000 -13.5858 -13.5579 -13.5579  -6.5125  -6.1076
    -6.1076  -6.0986  -6.0385  -6.0385  -5.9349  -5.6351  -5.6351  -5.6005
    -5.6004  -5.5976  -5.4915  -5.4915  -5.0643  -5.0643  -4.9411  -4.8928
    -4.8928  -4.8435  -4.8435  -4.5290  -4.5290  -4.4679  -4.1271  -4.1270
    -4.1260  -4.0953  -4.0953  -3.9687  -3.9687  -3.9606  -3.9257  -3.7716
    -3.7716  -3.6355  -3.3701  -3.3701  -3.2082  -3.0851  -3.0851  -3.0804
    -3.0659  -3.0092  -2.9653  -2.9653  -2.8898  -2.8898  -2.8731  -2.4715
    -2.4280  -2.4280  -2.3834  -2.3680  -1.8042  -1.7264  -1.7264  -1.5990
    -1.5990  -1.4645  -1.4645  -1.3923  -1.2213   0.6068   0.6068   0.7788
     0.7789   0.8217   0.8549   0.8550   0.8857   0.9197   1.0178   1.0637
     1.0666   1.0667   1.0855   1.1620   1.1620   1.2032   1.2212   1.2213

          k = 0.0000-0.5774 0.0000 ( 41552 PWs)   bands (ev):

   -56.7015 -56.7004 -56.6938 -56.6937 -56.6877 -56.6870 -56.6864 -56.6864
   -56.6836 -32.9024 -32.8745 -32.8743 -32.8732 -32.8730 -32.8069 -32.8068
   -32.7593 -32.7581 -32.7556 -32.7554 -32.7543 -32.7541 -32.7398 -32.7397
   -32.7319 -32.7308 -32.7255 -32.7217 -32.7211 -32.7206 -32.7206 -32.7182
   -32.7168 -32.7164 -32.6868 -32.6854 -14.8395 -14.8390 -14.3642 -14.3642
   -14.0467 -14.0462 -13.8289 -13.8289 -13.8165 -13.8164 -13.8159 -13.8157
   -13.8035 -13.5828 -13.5787 -13.5786 -13.5781 -13.5779  -6.5236  -6.0811
    -6.0810  -6.0807  -6.0806  -6.0186  -6.0182  -5.6078  -5.5941  -5.5941
    -5.5647  -5.5647  -5.5643  -5.5643  -5.0613  -5.0613  -4.9401  -4.8672
    -4.8671  -4.8667  -4.8666  -4.5104  -4.5104  -4.2954  -4.2951  -4.1180
    -4.1180  -4.1177  -4.1176  -3.9882  -3.9882  -3.9650  -3.7777  -3.7773
    -3.5682  -3.5681  -3.5679  -3.5679  -3.1464  -3.1459  -3.0992  -3.0992
    -3.0109  -2.9681  -2.9679  -2.9236  -2.9235  -2.9232  -2.9231  -2.4212
    -2.4211  -2.4135  -2.4135  -2.3643  -1.7969  -1.7215  -1.7215  -1.5337
    -1.5334  -1.5333  -1.5331  -1.3013  -1.3008   0.6003   0.6003   0.8295
     0.8296   0.8297   0.8299   0.8608   0.8611   0.8875   1.0281   1.0287
     1.0693   1.0693   1.1442   1.1448   1.1459   1.1459   1.2760   1.2959

          k = 0.0625 0.1083 0.0000 ( 41537 PWs)   bands (ev):

   -56.7054 -56.6939 -56.6926 -56.6917 -56.6907 -56.6901 -56.6890 -56.6841
   -56.6829 -32.8642 -32.8636 -32.8534 -32.8524 -32.8464 -32.8450 -32.8259
   -32.8254 -32.8096 -32.8089 -32.7708 -32.7384 -32.7372 -32.7335 -32.7324
   -32.7296 -32.7284 -32.7176 -32.7169 -32.7150 -32.7146 -32.7141 -32.7138
   -32.7084 -32.7079 -32.6759 -32.6735 -15.1125 -14.3109 -14.3104 -14.1785
   -14.1780 -14.1713 -14.0683 -14.0678 -13.8068 -13.8063 -13.7472 -13.7468
   -13.6986 -13.6981 -13.6342 -13.6325 -13.4866 -13.4859  -6.3744  -6.0985
    -6.0983  -5.9143  -5.9142  -5.8932  -5.8904  -5.7665  -5.7663  -5.5981
    -5.5848  -5.1964  -5.1963  -5.0981  -5.0978  -5.0626  -5.0623  -5.0179
    -5.0176  -5.0049  -5.0044  -4.9064  -4.9012  -4.7854  -4.7854  -4.6496
    -4.6314  -4.0557  -4.0530  -3.7872  -3.7870  -3.7404  -3.7401  -3.5895
    -3.5891  -3.4787  -3.4133  -3.2078  -3.2040  -3.0368  -2.9094  -2.9091
    -2.8230  -2.8227  -2.7818  -2.7815  -2.7067  -2.7065  -2.6796  -2.6793
    -2.5476  -2.5473  -2.5080  -2.4430  -1.9295  -1.9290  -1.8962  -1.8958
    -1.8682  -1.8677  -1.1055  -1.1010  -1.0092   0.3609   0.3636   0.8013
     0.8019   0.8293   0.8299   0.8340   0.8343   0.9292   0.9295   1.0082
     1.0086   1.0550   1.0554   1.2481   1.3204   1.3974   1.4431   1.5353

          k = 0.0625 0.1804 0.0000 ( 41521 PWs)   bands (ev):

   -56.7052 -56.6948 -56.6933 -56.6918 -56.6903 -56.6894 -56.6884 -56.6842
   -56.6830 -32.8743 -32.8688 -32.8584 -32.8561 -32.8515 -32.8392 -32.8188
   -32.8114 -32.8031 -32.8017 -32.7699 -32.7412 -32.7389 -32.7341 -32.7310
   -32.7278 -32.7263 -32.7203 -32.7195 -32.7184 -32.7151 -32.7150 -32.7144
   -32.7079 -32.7048 -32.6798 -32.6744 -15.0936 -14.3968 -14.3463 -14.2081
   -14.1627 -14.1278 -14.0265 -13.9982 -13.8454 -13.8224 -13.7599 -13.7240
   -13.6795 -13.6675 -13.6491 -13.6440 -13.4941 -13.4920  -6.3488  -6.2080
    -6.1431  -5.9575  -5.8713  -5.8625  -5.8451  -5.7218  -5.7059  -5.7009
    -5.6695  -5.3086  -5.2579  -5.0927  -5.0773  -5.0763  -5.0711  -5.0373
    -4.9978  -4.9899  -4.9372  -4.8478  -4.8239  -4.7093  -4.6319  -4.5964
    -4.5419  -4.0736  -4.0663  -3.8440  -3.8379  -3.8274  -3.7777  -3.6083
    -3.5449  -3.5101  -3.3947  -3.1804  -3.1694  -3.1123  -2.9393  -2.9061
    -2.8093  -2.7809  -2.7743  -2.7704  -2.7546  -2.7545  -2.7273  -2.7155
    -2.6066  -2.5476  -2.5070  -2.4091  -1.9126  -1.8839  -1.8616  -1.8576
    -1.8288  -1.8073  -1.1578  -1.1457  -1.0240   0.4185   0.4274   0.7609
     0.7807   0.7850   0.8234   0.8313   0.8426   0.9170   0.9600   1.0228
     1.0501   1.0890   1.1053   1.2011   1.3227   1.3613   1.4179   1.4278

          k = 0.0625 0.2526 0.0000 ( 41487 PWs)   bands (ev):

   -56.7047 -56.6958 -56.6938 -56.6920 -56.6897 -56.6889 -56.6878 -56.6844
   -56.6831 -32.8831 -32.8729 -32.8637 -32.8600 -32.8566 -32.8330 -32.8123
   -32.7968 -32.7952 -32.7932 -32.7687 -32.7443 -32.7401 -32.7349 -32.7292
   -32.7263 -32.7244 -32.7241 -32.7235 -32.7215 -32.7165 -32.7156 -32.7150
   -32.7082 -32.7014 -32.6857 -32.6757 -15.0656 -14.4830 -14.3767 -14.2338
   -14.1498 -14.0756 -13.9836 -13.9367 -13.8843 -13.8358 -13.7709 -13.6999
   -13.6709 -13.6609 -13.6599 -13.6405 -13.5051 -13.5009  -6.3109  -6.3051
    -6.1760  -5.9932  -5.8393  -5.8218  -5.8076  -5.7776  -5.7569  -5.7003
    -5.6842  -5.4051  -5.3195  -5.1519  -5.0788  -5.0763  -5.0080  -4.9998
    -4.9760  -4.9689  -4.8692  -4.8242  -4.7897  -4.6317  -4.4758  -4.4743
    -4.3923  -4.0953  -4.0823  -3.9123  -3.9069  -3.8808  -3.8334  -3.6567
    -3.6393  -3.4248  -3.3668  -3.2091  -3.1436  -3.1230  -2.9635  -2.9002
    -2.8852  -2.8656  -2.8499  -2.8378  -2.7989  -2.7107  -2.6776  -2.6680
    -2.6322  -2.6040  -2.4726  -2.3765  -1.8839  -1.8215  -1.8207  -1.8138
    -1.7879  -1.7294  -1.2253  -1.2057  -1.0477   0.4937   0.5079   0.7176
     0.7314   0.7838   0.8088   0.8361   0.8551   0.9314   0.9903   1.0417
     1.0852   1.1193   1.1436   1.1556   1.2300   1.3246   1.3605   1.3819

          k = 0.0625 0.3248 0.0000 ( 41521 PWs)   bands (ev):

   -56.7041 -56.6969 -56.6942 -56.6923 -56.6892 -56.6883 -56.6874 -56.6847
   -56.6832 -32.8905 -32.8761 -32.8685 -32.8634 -32.8610 -32.8273 -32.8065
   -32.7868 -32.7844 -32.7815 -32.7670 -32.7476 -32.7411 -32.7357 -32.7294
   -32.7290 -32.7275 -32.7249 -32.7234 -32.7228 -32.7182 -32.7164 -32.7156
   -32.7090 -32.6980 -32.6933 -32.6775 -15.0287 -14.5679 -14.4016 -14.2547
   -14.1330 -14.0223 -13.9402 -13.9228 -13.8852 -13.8468 -13.7798 -13.6994
   -13.6829 -13.6752 -13.6396 -13.6180 -13.5194 -13.5125  -6.3868  -6.2615
    -6.1958  -6.0195  -5.9072  -5.8370  -5.7982  -5.7692  -5.7413  -5.7165
    -5.6551  -5.4846  -5.3817  -5.2295  -5.0784  -5.0588  -4.9763  -4.9547
    -4.9530  -4.8764  -4.8220  -4.8022  -4.7883  -4.5540  -4.3153  -4.3098
    -4.2082  -4.1166  -4.0974  -3.9890  -3.9669  -3.9155  -3.8986  -3.7585
    -3.7222  -3.3346  -3.3306  -3.3197  -3.1010  -3.0694  -3.0055  -2.9825
    -2.9825  -2.9238  -2.9073  -2.8979  -2.8482  -2.7975  -2.6749  -2.6057
    -2.6015  -2.5456  -2.4451  -2.3543  -1.8505  -1.7893  -1.7613  -1.7530
    -1.7509  -1.6394  -1.3002  -1.2728  -1.0825   0.5781   0.5965   0.6775
     0.6863   0.7952   0.7965   0.8498   0.8670   0.9640   1.0151   1.0591
     1.0873   1.1106   1.1312   1.1472   1.1984   1.2289   1.2675   1.3367

          k = 0.0625 0.3969 0.0000 ( 41551 PWs)   bands (ev):

   -56.7034 -56.6981 -56.6945 -56.6924 -56.6886 -56.6878 -56.6871 -56.6852
   -56.6834 -32.8962 -32.8782 -32.8727 -32.8661 -32.8644 -32.8225 -32.8016
   -32.7778 -32.7753 -32.7668 -32.7650 -32.7509 -32.7418 -32.7362 -32.7360
   -32.7349 -32.7257 -32.7247 -32.7235 -32.7217 -32.7200 -32.7175 -32.7165
   -32.7100 -32.7025 -32.6945 -32.6797 -14.9832 -14.6500 -14.4205 -14.2708
   -14.1122 -13.9690 -13.9601 -13.8969 -13.8551 -13.8451 -13.7866 -13.7338
   -13.7099 -13.6501 -13.6192 -13.6005 -13.5365 -13.5265  -6.4502  -6.2014
    -6.2014  -6.0345  -5.9947  -5.9054  -5.8090  -5.7495  -5.7065  -5.6659
    -5.6346  -5.5453  -5.4449  -5.3099  -5.0780  -5.0367  -4.9458  -4.9431
    -4.9295  -4.8306  -4.8014  -4.7399  -4.7247  -4.4794  -4.1572  -4.1341
    -4.1233  -4.1087  -4.0513  -4.0198  -4.0079  -3.9633  -3.9417  -3.8977
    -3.7934  -3.4409  -3.2863  -3.2399  -3.1669  -3.0644  -3.0564  -3.0131
    -3.0109  -2.9964  -2.9873  -2.9777  -2.9030  -2.8075  -2.7573  -2.5426
    -2.5351  -2.4683  -2.4243  -2.3475  -1.8180  -1.7649  -1.7206  -1.7051
    -1.6846  -1.5420  -1.3767  -1.3436  -1.1293   0.6440   0.6501   0.6624
     0.6820   0.7921   0.8204   0.8644   0.8773   1.0066   1.0342   1.0360
     1.0417   1.0726   1.1361   1.1460   1.1775   1.1864   1.2345   1.2847

          k = 0.0625 0.4691 0.0000 ( 41564 PWs)   bands (ev):

   -56.7026 -56.6992 -56.6947 -56.6926 -56.6881 -56.6873 -56.6870 -56.6856
   -56.6835 -32.9000 -32.8793 -32.8759 -32.8679 -32.8669 -32.8190 -32.7981
   -32.7689 -32.7662 -32.7627 -32.7540 -32.7523 -32.7435 -32.7423 -32.7417
   -32.7366 -32.7256 -32.7240 -32.7222 -32.7214 -32.7210 -32.7187 -32.7173
   -32.7135 -32.7107 -32.6912 -32.6821 -14.9298 -14.7282 -14.4333 -14.2816
   -14.0878 -13.9957 -13.9165 -13.8607 -13.8547 -13.8177 -13.7912 -13.7736
   -13.7410 -13.6252 -13.5989 -13.5887 -13.5561 -13.5425  -6.4934  -6.1918
    -6.1319  -6.0677  -6.0368  -5.9600  -5.8890  -5.6945  -5.6350  -5.6298
    -5.6218  -5.5864  -5.5087  -5.3925  -5.0763  -5.0178  -4.9410  -4.9099
    -4.9061  -4.8447  -4.8223  -4.6894  -4.5588  -4.4154  -4.1432  -4.1128
    -4.0975  -4.0615  -4.0523  -4.0177  -4.0020  -3.9593  -3.9280  -3.8578
    -3.8004  -3.5707  -3.3446  -3.2347  -3.1924  -3.1424  -3.1238  -3.0469
    -3.0339  -3.0130  -3.0055  -2.9577  -2.9175  -2.8483  -2.8297  -2.4863
    -2.4823  -2.4106  -2.4104  -2.3582  -1.7926  -1.7485  -1.6994  -1.6471
    -1.6172  -1.4509  -1.4432  -1.4134  -1.1896   0.6204   0.6246   0.7405
     0.7571   0.8044   0.8411   0.8677   0.8841   0.9515   1.0151   1.0466
     1.0568   1.0807   1.0816   1.1257   1.1687   1.2217   1.2283   1.2437

          k = 0.0625 0.5413 0.0000 ( 41535 PWs)   bands (ev):

   -56.7017 -56.7002 -56.6947 -56.6926 -56.6878 -56.6871 -56.6867 -56.6861
   -56.6836 -32.9019 -32.8793 -32.8781 -32.8686 -32.8682 -32.8172 -32.7963
   -32.7601 -32.7601 -32.7575 -32.7570 -32.7514 -32.7492 -32.7425 -32.7385
   -32.7368 -32.7261 -32.7255 -32.7225 -32.7219 -32.7212 -32.7209 -32.7199
   -32.7179 -32.7113 -32.6881 -32.6848 -14.8691 -14.8016 -14.4398 -14.2870
   -14.0600 -14.0292 -13.8658 -13.8635 -13.8179 -13.8141 -13.8038 -13.7935
   -13.7760 -13.6010 -13.5827 -13.5791 -13.5777 -13.5601  -6.5153  -6.1664
    -6.1251  -6.0549  -6.0257  -6.0002  -5.9728  -5.6348  -5.6157  -5.6108
    -5.6071  -5.5724  -5.5574  -5.4757  -5.0748  -5.0070  -4.9389  -4.8836
    -4.8779  -4.8628  -4.8483  -4.6596  -4.3876  -4.3757  -4.2171  -4.1420
    -4.1273  -4.1074  -4.0905  -4.0495  -3.9682  -3.8983  -3.8518  -3.7298
    -3.7078  -3.5919  -3.5338  -3.3877  -3.1769  -3.1549  -3.1139  -3.0585
    -3.0431  -3.0099  -2.9738  -2.9445  -2.9413  -2.9068  -2.8634  -2.4603
    -2.4288  -2.4034  -2.3862  -2.3798  -1.7785  -1.7397  -1.6885  -1.5860
    -1.5501  -1.5211  -1.4824  -1.3487  -1.2632   0.6087   0.6115   0.8051
     0.8125   0.8345   0.8420   0.8490   0.8837   0.8887   1.0124   1.0349
     1.0527   1.0870   1.0935   1.1119   1.1699   1.2133   1.2238   1.2748

          k = 0.1250 0.2165 0.0000 ( 41483 PWs)   bands (ev):

   -56.7047 -56.6955 -56.6942 -56.6914 -56.6903 -56.6888 -56.6879 -56.6844
   -56.6831 -32.8787 -32.8779 -32.8636 -32.8586 -32.8459 -32.8447 -32.8047
   -32.8043 -32.7970 -32.7942 -32.7688 -32.7429 -32.7417 -32.7325 -32.7314
   -32.7260 -32.7248 -32.7228 -32.7221 -32.7206 -32.7194 -32.7155 -32.7148
   -32.7046 -32.7042 -32.6847 -32.6755 -15.0702 -14.4325 -14.4320 -14.1529
   -14.1524 -14.1520 -13.9612 -13.9607 -13.8614 -13.8610 -13.7347 -13.7342
   -13.6694 -13.6560 -13.6509 -13.6504 -13.5041 -13.4986  -6.3171  -6.2456
    -6.2454  -5.8828  -5.8827  -5.8482  -5.8248  -5.8029  -5.7333  -5.6871
    -5.6869  -5.3632  -5.3630  -5.0480  -5.0478  -5.0441  -5.0438  -5.0162
    -5.0157  -4.9735  -4.9732  -4.8317  -4.7810  -4.5527  -4.5526  -4.5190
    -4.4009  -4.0949  -4.0772  -3.8855  -3.8853  -3.8766  -3.8763  -3.6233
    -3.5323  -3.5319  -3.3715  -3.1929  -3.1537  -3.1259  -2.9384  -2.9380
    -2.8744  -2.8741  -2.8302  -2.8300  -2.7406  -2.7404  -2.6550  -2.6548
    -2.5996  -2.5770  -2.5767  -2.3762  -1.8564  -1.8560  -1.8262  -1.8258
    -1.7652  -1.7647  -1.2195  -1.1919  -1.0433   0.4788   0.4985   0.7476
     0.7480   0.7730   0.7736   0.8478   0.8481   0.9557   0.9559   1.0615
     1.0618   1.1347   1.1352   1.1507   1.2451   1.3470   1.3475   1.3873

          k = 0.1250 0.2887 0.0000 ( 41521 PWs)   bands (ev):

   -56.7043 -56.6964 -56.6949 -56.6914 -56.6899 -56.6882 -56.6875 -56.6847
   -56.6832 -32.8864 -32.8814 -32.8690 -32.8610 -32.8507 -32.8394 -32.7982
   -32.7902 -32.7893 -32.7856 -32.7674 -32.7458 -32.7433 -32.7328 -32.7299
   -32.7263 -32.7261 -32.7245 -32.7242 -32.7233 -32.7221 -32.7163 -32.7154
   -32.7046 -32.7009 -32.6914 -32.6771 -15.0378 -14.5175 -14.4619 -14.1735
   -14.1372 -14.0955 -13.9230 -13.9046 -13.8998 -13.8744 -13.7431 -13.7080
   -13.6973 -13.6725 -13.6332 -13.6259 -13.5179 -13.5076  -6.3340  -6.2736
    -6.2695  -5.9157  -5.9066  -5.8170  -5.8111  -5.7970  -5.7733  -5.7061
    -5.6754  -5.4517  -5.4173  -5.0987  -5.0485  -5.0126  -5.0109  -4.9562
    -4.9555  -4.9554  -4.9495  -4.8301  -4.7709  -4.4721  -4.3934  -4.3883
    -4.2231  -4.1181  -4.0885  -3.9656  -3.9370  -3.9359  -3.9196  -3.7287
    -3.5840  -3.4492  -3.3403  -3.2906  -3.1206  -3.0722  -2.9980  -2.9895
    -2.9639  -2.9355  -2.8944  -2.8907  -2.7355  -2.6916  -2.6709  -2.6696
    -2.5916  -2.5674  -2.5517  -2.3469  -1.8218  -1.7961  -1.7860  -1.7854
    -1.7241  -1.6856  -1.2910  -1.2483  -1.0730   0.5520   0.5818   0.7099
     0.7266   0.7521   0.7673   0.8587   0.8626   0.9675   0.9878   1.0738
     1.0914   1.0945   1.1544   1.1609   1.1786   1.2479   1.2588   1.3462

          k = 0.1250 0.3608 0.0000 ( 41513 PWs)   bands (ev):

   -56.7036 -56.6974 -56.6953 -56.6914 -56.6893 -56.6877 -56.6872 -56.6850
   -56.6833 -32.8928 -32.8836 -32.8739 -32.8630 -32.8553 -32.8341 -32.7927
   -32.7815 -32.7770 -32.7749 -32.7656 -32.7489 -32.7443 -32.7333 -32.7325
   -32.7312 -32.7279 -32.7259 -32.7243 -32.7232 -32.7220 -32.7174 -32.7161
   -32.7051 -32.6997 -32.6973 -32.6791 -14.9968 -14.6008 -14.4853 -14.1901
   -14.1184 -14.0376 -13.9376 -13.8851 -13.8848 -13.8589 -13.7500 -13.7320
   -13.6934 -13.6810 -13.6153 -13.6059 -13.5349 -13.5188  -6.4058  -6.2788
    -6.2190  -6.0029  -5.9409  -5.8535  -5.7787  -5.7619  -5.7468  -5.7094
    -5.6689  -5.5223  -5.4716  -5.1857  -5.0513  -4.9759  -4.9744  -4.9450
    -4.9366  -4.8981  -4.8367  -4.8131  -4.7809  -4.3926  -4.2345  -4.2262
    -4.1394  -4.0975  -4.0395  -4.0255  -3.9970  -3.9862  -3.9464  -3.8557
    -3.6514  -3.4004  -3.3593  -3.3010  -3.1454  -3.0907  -3.0839  -3.0128
    -2.9838  -2.9544  -2.9538  -2.9363  -2.8386  -2.7564  -2.7428  -2.6043
    -2.5312  -2.5281  -2.4808  -2.3287  -1.7864  -1.7718  -1.7395  -1.7127
    -1.6881  -1.5948  -1.3673  -1.3103  -1.1142   0.6312   0.6655   0.6775
     0.6873   0.7680   0.7730   0.8716   0.8765   0.9946   1.0124   1.0436
     1.0625   1.0865   1.1137   1.1601   1.1734   1.1889   1.2182   1.2975

          k = 0.1250 0.4330 0.0000 ( 41540 PWs)   bands (ev):

   -56.7028 -56.6985 -56.6956 -56.6915 -56.6887 -56.6873 -56.6870 -56.6855
   -56.6835 -32.8974 -32.8847 -32.8780 -32.8641 -32.8590 -32.8299 -32.7884
   -32.7730 -32.7681 -32.7634 -32.7606 -32.7521 -32.7449 -32.7398 -32.7370
   -32.7338 -32.7270 -32.7263 -32.7260 -32.7221 -32.7211 -32.7186 -32.7168
   -32.7097 -32.7056 -32.6938 -32.6815 -14.9475 -14.6808 -14.5023 -14.2022
   -14.0959 -13.9801 -13.9741 -13.8923 -13.8479 -13.8253 -13.7729 -13.7550
   -13.7182 -13.6540 -13.5974 -13.5913 -13.5549 -13.5320  -6.4585  -6.2728
    -6.1544  -6.0873  -5.9565  -5.8993  -5.8367  -5.7347  -5.6956  -5.6658
    -5.6348  -5.5736  -5.5262  -5.2767  -5.0527  -4.9441  -4.9385  -4.9362
    -4.9174  -4.8489  -4.8482  -4.8016  -4.6563  -4.3189  -4.1547  -4.1016
    -4.0958  -4.0786  -4.0516  -4.0478  -4.0292  -3.9999  -3.9655  -3.8181
    -3.7210  -3.5197  -3.3105  -3.2636  -3.2545  -3.1705  -3.0470  -3.0184
    -3.0095  -3.0031  -2.9978  -2.9520  -2.9438  -2.8518  -2.7633  -2.5519
    -2.5161  -2.4674  -2.4086  -2.3255  -1.7557  -1.7546  -1.6895  -1.6606
    -1.6417  -1.4991  -1.4420  -1.3751  -1.1679   0.6517   0.6574   0.7078
     0.7415   0.7788   0.8038   0.8774   0.8862   0.9767   1.0077   1.0295
     1.0322   1.0868   1.0958   1.1029   1.1358   1.2251   1.2436   1.2513

          k = 0.1250 0.5052 0.0000 ( 41520 PWs)   bands (ev):

   -56.7020 -56.6996 -56.6957 -56.6916 -56.6882 -56.6871 -56.6868 -56.6859
   -56.6835 -32.9003 -32.8847 -32.8813 -32.8643 -32.8618 -32.8273 -32.7857
   -32.7644 -32.7610 -32.7594 -32.7552 -32.7475 -32.7466 -32.7453 -32.7438
   -32.7340 -32.7277 -32.7277 -32.7242 -32.7212 -32.7210 -32.7208 -32.7195
   -32.7175 -32.7062 -32.6905 -32.6842 -14.8905 -14.7564 -14.5125 -14.2095
   -14.0698 -14.0085 -13.9238 -13.8969 -13.8192 -13.8119 -13.8046 -13.7580
   -13.7465 -13.6273 -13.5824 -13.5798 -13.5772 -13.5467  -6.4907  -6.2506
    -6.1575  -6.0814  -5.9609  -5.9327  -5.9189  -5.6859  -5.6645  -5.6624
    -5.6046  -5.5805  -5.5516  -5.3697  -5.0532  -4.9353  -4.9223  -4.8983
    -4.8982  -4.8629  -4.8294  -4.8146  -4.4902  -4.2618  -4.1607  -4.1570
    -4.1338  -4.0980  -4.0902  -4.0623  -3.9771  -3.9278  -3.8616  -3.7775
    -3.6478  -3.6074  -3.4881  -3.2217  -3.2019  -3.1980  -3.1628  -3.0822
    -3.0347  -3.0123  -3.0060  -2.9592  -2.9540  -2.8935  -2.7965  -2.5179
    -2.5069  -2.4132  -2.3610  -2.3393  -1.7441  -1.7351  -1.6428  -1.6355
    -1.5731  -1.5121  -1.4403  -1.4038  -1.2351   0.6356   0.6392   0.7773
     0.7996   0.8036   0.8292   0.8658   0.8906   0.9028   0.9919   1.0327
     1.0396   1.0562   1.0791   1.1013   1.1688   1.1872   1.2723   1.2795

          k = 0.1250 0.5774 0.0000 ( 41542 PWs)   bands (ev):

   -56.7014 -56.7003 -56.6958 -56.6916 -56.6879 -56.6871 -56.6865 -56.6863
   -56.6836 -32.9012 -32.8837 -32.8833 -32.8637 -32.8634 -32.8264 -32.7847
   -32.7588 -32.7576 -32.7561 -32.7558 -32.7514 -32.7510 -32.7454 -32.7341
   -32.7339 -32.7329 -32.7280 -32.7279 -32.7229 -32.7219 -32.7204 -32.7198
   -32.7178 -32.7064 -32.6879 -32.6866 -14.8268 -14.8263 -14.5160 -14.2119
   -14.0408 -14.0403 -13.8984 -13.8700 -13.8696 -13.7977 -13.7782 -13.7777
   -13.7590 -13.6018 -13.6014 -13.5793 -13.5630 -13.5626  -6.5015  -6.2122
    -6.2121  -6.0021  -6.0017  -5.9533  -5.9533  -5.6642  -5.6509  -5.6343
    -5.6340  -5.6150  -5.4624  -5.4621  -5.0533  -4.9343  -4.9147  -4.8801
    -4.8798  -4.8623  -4.8620  -4.8021  -4.3222  -4.3219  -4.2387  -4.1549
    -4.1545  -4.1043  -4.0855  -4.0852  -3.9808  -3.8002  -3.7843  -3.7839
    -3.6734  -3.6734  -3.3990  -3.3989  -3.2395  -3.1445  -3.1440  -3.0589
    -3.0587  -3.0456  -3.0087  -2.9825  -2.9824  -2.8407  -2.8405  -2.5062
    -2.5038  -2.3695  -2.3693  -2.3443  -1.7407  -1.7276  -1.6372  -1.5772
    -1.5768  -1.5066  -1.5063  -1.3149  -1.3144   0.6300   0.6327   0.8301
     0.8303   0.8314   0.8317   0.8444   0.8446   0.8925   0.9996   1.0002
     1.0407   1.0431   1.1027   1.1308   1.1313   1.2264   1.2267   1.2757

          k = 0.1875 0.3248 0.0000 ( 41535 PWs)   bands (ev):

   -56.7036 -56.6971 -56.6958 -56.6909 -56.6898 -56.6877 -56.6872 -56.6850
   -56.6833 -32.8889 -32.8881 -32.8743 -32.8618 -32.8457 -32.8446 -32.7841
   -32.7838 -32.7825 -32.7774 -32.7658 -32.7473 -32.7461 -32.7311 -32.7300
   -32.7293 -32.7287 -32.7277 -32.7276 -32.7231 -32.7221 -32.7174 -32.7159
   -32.7011 -32.7008 -32.6986 -32.6790 -15.0013 -14.5459 -14.5454 -14.1205
   -14.1121 -14.1117 -13.9127 -13.9122 -13.8726 -13.8721 -13.7314 -13.7148
   -13.7143 -13.6879 -13.6111 -13.6106 -13.5344 -13.5163  -6.3481  -6.3479
    -6.2250  -6.0056  -5.8428  -5.8427  -5.8348  -5.7885  -5.7139  -5.7136
    -5.7104  -5.4977  -5.4975  -5.0480  -5.0476  -5.0127  -5.0124  -4.9420
    -4.9416  -4.8990  -4.8988  -4.8394  -4.7718  -4.3123  -4.3122  -4.2642
    -4.1413  -4.0934  -4.0312  -4.0221  -4.0219  -3.9612  -3.9610  -3.8412
    -3.5026  -3.5022  -3.3857  -3.3061  -3.1194  -3.1191  -3.0935  -3.0127
    -2.9638  -2.9635  -2.9446  -2.9445  -2.7586  -2.6751  -2.6748  -2.6745
    -2.6743  -2.5033  -2.5032  -2.3204  -1.7630  -1.7626  -1.7480  -1.7476
    -1.6456  -1.6451  -1.3636  -1.2990  -1.1091   0.6194   0.6598   0.7215
     0.7219   0.7295   0.7300   0.8750   0.8752   0.9970   0.9972   1.0439
     1.0720   1.0987   1.0989   1.1664   1.1669   1.2027   1.2032   1.3015

          k = 0.1875 0.3969 0.0000 ( 41536 PWs)   bands (ev):

   -56.7029 -56.6979 -56.6963 -56.6907 -56.6894 -56.6873 -56.6870 -56.6854
   -56.6834 -32.8940 -32.8896 -32.8791 -32.8620 -32.8502 -32.8404 -32.7789
   -32.7752 -32.7697 -32.7687 -32.7638 -32.7500 -32.7473 -32.7357 -32.7330
   -32.7311 -32.7309 -32.7294 -32.7283 -32.7220 -32.7212 -32.7185 -32.7165
   -32.7077 -32.7011 -32.6971 -32.6812 -14.9564 -14.6268 -14.5671 -14.1244
   -14.0999 -14.0499 -13.9494 -13.9220 -13.8406 -13.8329 -13.7726 -13.7196
   -13.7066 -13.6857 -13.5957 -13.5936 -13.5543 -13.5267  -6.4089  -6.3462
    -6.1658  -6.0973  -5.8694  -5.8657  -5.7799  -5.7796  -5.7550  -5.7211
    -5.6347  -5.5590  -5.5431  -5.1460  -5.0131  -5.0024  -4.9718  -4.9336
    -4.9265  -4.8541  -4.8509  -4.7877  -4.7562  -4.2341  -4.1607  -4.1553
    -4.1147  -4.0954  -4.0886  -4.0745  -4.0009  -3.9793  -3.9728  -3.8264
    -3.5682  -3.4911  -3.4111  -3.2684  -3.2651  -3.2204  -3.0648  -2.9986
    -2.9922  -2.9850  -2.9668  -2.9489  -2.8614  -2.8295  -2.6932  -2.6614
    -2.6218  -2.4427  -2.4206  -2.3041  -1.7457  -1.7237  -1.7126  -1.6736
    -1.6117  -1.5565  -1.4372  -1.3541  -1.1572   0.6893   0.6973   0.6996
     0.7330   0.7427   0.7505   0.8833   0.8863   0.9902   1.0013   1.0190
     1.0196   1.0886   1.0920   1.1066   1.1176   1.2320   1.2412   1.2506

          k = 0.1875 0.4691 0.0000 ( 41551 PWs)   bands (ev):

   -56.7021 -56.6990 -56.6966 -56.6907 -56.6888 -56.6871 -56.6869 -56.6858
   -56.6835 -32.8976 -32.8897 -32.8832 -32.8614 -32.8544 -32.8369 -32.7753
   -32.7673 -32.7615 -32.7607 -32.7555 -32.7531 -32.7480 -32.7431 -32.7387
   -32.7329 -32.7313 -32.7304 -32.7263 -32.7212 -32.7210 -32.7194 -32.7180
   -32.7171 -32.7015 -32.6936 -32.6839 -14.9035 -14.7042 -14.5815 -14.1329
   -14.0757 -13.9886 -13.9847 -13.9285 -13.8200 -13.8098 -13.8060 -13.7285
   -13.7229 -13.6569 -13.5819 -13.5806 -13.5769 -13.5386  -6.4504  -6.3283
    -6.1773  -6.0974  -5.8887  -5.8874  -5.8583  -5.7334  -5.7267  -5.7170
    -5.6005  -5.5882  -5.5478  -5.2482  -5.0131  -4.9674  -4.9294  -4.9290
    -4.9108  -4.8643  -4.8205  -4.8142  -4.5993  -4.1728  -4.1666  -4.1354
    -4.1191  -4.1157  -4.0916  -4.0354  -4.0047  -3.9914  -3.9499  -3.6312
    -3.6159  -3.6057  -3.4313  -3.3110  -3.2936  -3.2184  -3.0552  -3.0366
    -3.0279  -3.0070  -2.9990  -2.9754  -2.9732  -2.8848  -2.7256  -2.6518
    -2.5833  -2.3891  -2.3575  -2.3022  -1.7342  -1.6858  -1.6791  -1.6030
    -1.5879  -1.5071  -1.4644  -1.4124  -1.2180   0.6783   0.6796   0.7562
     0.7659   0.7885   0.7903   0.8792   0.8919   0.9154   0.9745   1.0270
     1.0330   1.0346   1.0520   1.1123   1.1374   1.1967   1.2715   1.2735

          k = 0.1875 0.5413 0.0000 ( 41513 PWs)   bands (ev):

   -56.7013 -56.6999 -56.6967 -56.6907 -56.6883 -56.6872 -56.6866 -56.6862
   -56.6835 -32.8995 -32.8886 -32.8863 -32.8599 -32.8576 -32.8351 -32.7734
   -32.7591 -32.7590 -32.7560 -32.7529 -32.7508 -32.7482 -32.7452 -32.7422
   -32.7341 -32.7314 -32.7309 -32.7294 -32.7244 -32.7223 -32.7204 -32.7195
   -32.7175 -32.7017 -32.6902 -32.6867 -14.8434 -14.7767 -14.5887 -14.1372
   -14.0482 -14.0178 -13.9317 -13.9291 -13.8725 -13.7923 -13.7805 -13.7533
   -13.7246 -13.6289 -13.6020 -13.5759 -13.5658 -13.5517  -6.4715  -6.2939
    -6.2433  -6.0215  -5.9407  -5.8988  -5.8984  -5.7297  -5.7086  -5.6758
    -5.6327  -5.6214  -5.4524  -5.3515  -5.0129  -4.9481  -4.9276  -4.8948
    -4.8872  -4.8790  -4.8481  -4.8027  -4.4369  -4.2751  -4.1746  -4.1633
    -4.1386  -4.1240  -4.0809  -4.0622  -3.9974  -3.8621  -3.7772  -3.7292
    -3.6722  -3.6027  -3.4055  -3.3323  -3.2024  -3.2007  -3.1668  -3.1117
    -3.0884  -3.0468  -3.0111  -3.0061  -2.9904  -2.8240  -2.7699  -2.6469
    -2.5630  -2.3459  -2.3235  -2.3163  -1.7290  -1.6712  -1.6284  -1.5753
    -1.5709  -1.5362  -1.4727  -1.3743  -1.2907   0.6675   0.6699   0.8023
     0.8145   0.8187   0.8216   0.8523   0.8567   0.8938   0.9693   0.9872
     1.0039   1.0401   1.0944   1.1156   1.1437   1.1692   1.2295   1.2876

          k = 0.2500 0.4330 0.0000 ( 41541 PWs)   bands (ev):

   -56.7022 -56.6985 -56.6972 -56.6902 -56.6892 -56.6871 -56.6869 -56.6858
   -56.6835 -32.8944 -32.8937 -32.8838 -32.8603 -32.8465 -32.8455 -32.7685
   -32.7653 -32.7650 -32.7617 -32.7609 -32.7513 -32.7500 -32.7388 -32.7378
   -32.7344 -32.7337 -32.7293 -32.7281 -32.7212 -32.7210 -32.7194 -32.7170
   -32.7169 -32.6974 -32.6972 -32.6838 -14.9079 -14.6459 -14.6454 -14.0777
   -14.0590 -14.0586 -13.9581 -13.9576 -13.8203 -13.8080 -13.8075 -13.7224
   -13.6893 -13.6888 -13.5815 -13.5811 -13.5768 -13.5358  -6.3958  -6.3956
    -6.1839  -6.1028  -5.8713  -5.8114  -5.8114  -5.7933  -5.7930  -5.7273
    -5.5951  -5.5949  -5.5467  -5.1134  -5.1130  -4.9690  -4.9687  -4.9213
    -4.9210  -4.8648  -4.8082  -4.7110  -4.7109  -4.1770  -4.1301  -4.1299
    -4.1058  -4.0892  -4.0831  -4.0830  -4.0112  -4.0110  -3.9814  -3.6185
    -3.5901  -3.4717  -3.4713  -3.3655  -3.3652  -3.2241  -3.0448  -3.0358
    -3.0357  -2.9891  -2.9888  -2.9818  -2.8818  -2.8222  -2.8220  -2.6537
    -2.6535  -2.3683  -2.3681  -2.2883  -1.7125  -1.7120  -1.6407  -1.6404
    -1.5274  -1.5269  -1.5057  -1.4018  -1.2122   0.7225   0.7229   0.7337
     0.7341   0.7496   0.7868   0.8881   0.8883   0.9205   0.9681   1.0257
     1.0263   1.0365   1.0367   1.1219   1.1221   1.1996   1.2707   1.2712

          k = 0.2500 0.5052 0.0000 ( 41529 PWs)   bands (ev):

   -56.7013 -56.6993 -56.6976 -56.6900 -56.6888 -56.6872 -56.6866 -56.6861
   -56.6835 -32.8967 -32.8930 -32.8878 -32.8579 -32.8509 -32.8433 -32.7626
   -32.7608 -32.7593 -32.7538 -32.7535 -32.7518 -32.7509 -32.7457 -32.7404
   -32.7393 -32.7348 -32.7290 -32.7276 -32.7265 -32.7224 -32.7203 -32.7194
   -32.7173 -32.6974 -32.6935 -32.6867 -14.8519 -14.7199 -14.6570 -14.0642
   -14.0521 -13.9944 -13.9918 -13.9630 -13.8739 -13.7877 -13.7837 -13.7408
   -13.6910 -13.6589 -13.6022 -13.5725 -13.5691 -13.5461  -6.4259  -6.3661
    -6.2591  -6.0315  -5.8731  -5.8687  -5.8380  -5.8014  -5.7733  -5.6969
    -5.6301  -5.6263  -5.4473  -5.2271  -5.0914  -4.9665  -4.9228  -4.9185
    -4.9077  -4.8793  -4.8394  -4.6815  -4.5580  -4.2507  -4.1852  -4.1652
    -4.1579  -4.0784  -4.0392  -4.0280  -4.0170  -3.9427  -3.8334  -3.6974
    -3.5216  -3.5196  -3.4277  -3.4085  -3.3608  -3.1789  -3.1100  -3.0828
    -3.0601  -3.0259  -3.0046  -3.0021  -2.9969  -2.8172  -2.8153  -2.6981
    -2.6280  -2.3266  -2.3180  -2.2858  -1.7061  -1.6720  -1.6183  -1.5735
    -1.5682  -1.5081  -1.4548  -1.4399  -1.2789   0.7106   0.7226   0.7571
     0.7779   0.8037   0.8165   0.8565   0.8764   0.8892   0.9510   0.9794
     0.9838   1.0470   1.0650   1.1249   1.1394   1.1494   1.2312   1.2984

          k = 0.2500 0.5774 0.0000 ( 41501 PWs)   bands (ev):

   -56.7007 -56.6999 -56.6977 -56.6900 -56.6885 -56.6874 -56.6865 -56.6862
   -56.6835 -32.8976 -32.8912 -32.8906 -32.8551 -32.8546 -32.8424 -32.7615
   -32.7572 -32.7561 -32.7537 -32.7531 -32.7511 -32.7464 -32.7459 -32.7410
   -32.7398 -32.7385 -32.7350 -32.7291 -32.7249 -32.7237 -32.7200 -32.7194
   -32.7174 -32.6975 -32.6904 -32.6895 -14.7892 -14.7887 -14.6608 -14.0660
   -14.0236 -14.0231 -13.9647 -13.9325 -13.9321 -13.7809 -13.7615 -13.7611
   -13.6917 -13.6300 -13.6295 -13.5695 -13.5575 -13.5570  -6.4361  -6.3203
    -6.3202  -5.9541  -5.9537  -5.8575  -5.8574  -5.8043  -5.7602  -5.6643
    -5.6640  -5.6369  -5.3398  -5.3395  -5.0839  -4.9656  -4.9179  -4.8937
    -4.8934  -4.8787  -4.8785  -4.6714  -4.4030  -4.4028  -4.1825  -4.1822
    -4.1678  -4.0617  -4.0615  -4.0189  -4.0063  -3.8144  -3.8141  -3.6775
    -3.6774  -3.5419  -3.4495  -3.2387  -3.2385  -3.2019  -3.2017  -3.1312
    -3.1308  -3.0686  -3.0096  -3.0094  -3.0067  -2.8154  -2.7530  -2.7528
    -2.6193  -2.3003  -2.2987  -2.2985  -1.7043  -1.6243  -1.6238  -1.6106
    -1.5116  -1.5114  -1.5018  -1.3558  -1.3553   0.7064   0.7184   0.8016
     0.8017   0.8117   0.8120   0.8479   0.8482   0.8903   0.9542   0.9548
     0.9690   1.0504   1.1035   1.1039   1.1262   1.1708   1.1710   1.3088

          k = 0.3125 0.5413 0.0000 ( 41511 PWs)   bands (ev):

   -56.7005 -56.6997 -56.6981 -56.6894 -56.6888 -56.6875 -56.6865 -56.6862
   -56.6835 -32.8951 -32.8944 -32.8917 -32.8539 -32.8493 -32.8486 -32.7569
   -32.7546 -32.7544 -32.7532 -32.7505 -32.7499 -32.7474 -32.7474 -32.7458
   -32.7406 -32.7398 -32.7382 -32.7271 -32.7263 -32.7241 -32.7198 -32.7194
   -32.7174 -32.6939 -32.6933 -32.6899 -14.7931 -14.7281 -14.7276 -14.0252
   -13.9975 -13.9971 -13.9956 -13.9951 -13.9334 -13.7707 -13.7703 -13.7548
   -13.6601 -13.6597 -13.6301 -13.5635 -13.5630 -13.5544  -6.3853  -6.3852
    -6.3292  -5.9584  -5.8807  -5.8804  -5.8430  -5.8108  -5.8107  -5.6747
    -5.6514  -5.6511  -5.3356  -5.2159  -5.2156  -4.9192  -4.9189  -4.9066
    -4.9063  -4.8933  -4.8754  -4.5364  -4.5364  -4.3911  -4.1890  -4.1811
    -4.1809  -4.0613  -4.0409  -4.0406  -3.9053  -3.9051  -3.7960  -3.7037
    -3.5665  -3.5663  -3.3937  -3.3934  -3.2531  -3.2021  -3.1380  -3.0978
    -3.0976  -3.0160  -3.0082  -3.0079  -3.0028  -3.0026  -2.7471  -2.6837
    -2.6835  -2.2923  -2.2921  -2.2816  -1.6692  -1.6687  -1.6231  -1.5573
    -1.5570  -1.5028  -1.4274  -1.4269  -1.3493   0.7520   0.7523   0.7715
     0.7718   0.8017   0.8090   0.8444   0.8742   0.8746   0.9431   0.9527
     0.9533   1.0710   1.0712   1.1065   1.1408   1.1409   1.1702   1.3366

     the Fermi energy is    -1.6254 ev
     (compare with:    -1.5468 eV, computed in scf)

     Writing output data file ./outdir/nbse2.save/
 
     init_run     :      2.56s CPU      3.42s WALL (       1 calls)
     electrons    :   1143.79s CPU   1261.63s WALL (       1 calls)

     Called by init_run:
     wfcinit      :      0.00s CPU      0.00s WALL (       1 calls)
     potinit      :      0.37s CPU      0.61s WALL (       1 calls)
     hinit0       :      1.12s CPU      1.19s WALL (       1 calls)

     Called by electrons:
     c_bands      :   1143.52s CPU   1261.31s WALL (       1 calls)
     v_of_rho     :      0.12s CPU      0.30s WALL (       1 calls)
     newd         :      0.29s CPU      0.57s WALL (       1 calls)
     PAW_pot      :      0.14s CPU      0.16s WALL (       1 calls)

     Called by c_bands:
     init_us_2    :      0.60s CPU      0.66s WALL (      30 calls)
     cegterg      :   1122.72s CPU   1237.22s WALL (     165 calls)

     Called by *egterg:
     cdiaghg      :    102.80s CPU    103.73s WALL (    3187 calls)
     h_psi        :    518.50s CPU    605.13s WALL (    3352 calls)
     s_psi        :     97.05s CPU     98.97s WALL (    3352 calls)
     g_psi        :      3.76s CPU      3.69s WALL (    3157 calls)

     Called by h_psi:
     h_psi:calbec :    123.84s CPU    134.36s WALL (    3352 calls)
     vloc_psi     :    286.18s CPU    360.51s WALL (    3352 calls)
     add_vuspsi   :     98.45s CPU    100.10s WALL (    3352 calls)

     General routines
     calbec       :    123.82s CPU    134.34s WALL (    3352 calls)
     fft          :      0.12s CPU      0.25s WALL (      13 calls)
     ffts         :      0.00s CPU      0.00s WALL (       1 calls)
     fftw         :    257.04s CPU    329.69s WALL (  431594 calls)
     interpolate  :      0.01s CPU      0.01s WALL (       1 calls)
     davcio       :      0.06s CPU      0.38s WALL (      60 calls)
 
     Parallel routines
     fft_scatt_xy :     23.97s CPU     25.66s WALL (  431608 calls)
     fft_scatt_yz :    118.35s CPU    182.46s WALL (  431608 calls)
 
     PWSCF        :  19m12.36s CPU  21m13.99s WALL

 
   This run was terminated on:  20:14:19   5Sep2020            

=------------------------------------------------------------------------------=
   JOB DONE.
=------------------------------------------------------------------------------=
