
     Program PWSCF v.6.6 starts on  6Sep2020 at 12:59:36 

     This program is part of the open-source Quantum ESPRESSO suite
     for quantum simulation of materials; please cite
         "P. Giannozzi et al., J. Phys.:Condens. Matter 21 395502 (2009);
         "P. Giannozzi et al., J. Phys.:Condens. Matter 29 465901 (2017);
          URL http://www.quantum-espresso.org", 
     in publications or presentations arising from this work. More details at
     http://www.quantum-espresso.org/quote

     Parallel version (MPI), running on    44 processors

     MPI processes distributed on     1 nodes
     R & G space division:  proc/nbgrp/npool/nimage =      44
     Fft bands division:     nmany     =       1
     Reading input from 1-scf.in

     Current dimensions of program PWSCF are:
     Max number of different atomic species (ntypx) = 10
     Max number of k-points (npk) =  40000
     Max angular momentum in pseudopotentials (lmaxx) =  3
     file Se.rel-pbe-n-kjpaw_psl.0.2.UPF: wavefunction(s)  4S 4P renormalized
     file Nb.rel-pbe-spn-kjpaw_psl.1.0.0.UPF: wavefunction(s)  4S 4P 4P 4D renormalized

     Subspace diagonalization in iterative solution of the eigenvalue problem:
     a serial algorithm will be used

     Found symmetry operation: I + ( -0.0000  0.3333  0.0000)
     This is a supercell, fractional translations are disabled
 
     Parallelization info
     --------------------
     sticks:   dense  smooth     PW     G-vecs:    dense   smooth      PW
     Min         141      73     19                20035     7547    1039
     Max         142      74     20                20043     7556    1052
     Sum        6205    3253    859               881733   332337   45913
 


     bravais-lattice index     =            4
     lattice parameter (alat)  =      19.7820  a.u.
     unit-cell volume          =   14965.4900 (a.u.)^3
     number of atoms/cell      =           27
     number of atomic types    =            2
     number of electrons       =       225.00
     number of Kohn-Sham states=          272
     kinetic-energy cutoff     =      30.0000  Ry
     charge density cutoff     =     230.0000  Ry
     convergence threshold     =      1.0E-06
     mixing beta               =       0.4000
     number of iterations used =            8  plain     mixing
     Exchange-correlation= SLA PW PBX PBC
                           (   1   4   3   4   0   0   0)
     Non magnetic calculation with spin-orbit


     celldm(1)=  19.782031  celldm(2)=   0.000000  celldm(3)=   2.232275
     celldm(4)=   0.000000  celldm(5)=   0.000000  celldm(6)=   0.000000

     crystal axes: (cart. coord. in units of alat)
               a(1) = (   1.000000   0.000000   0.000000 )  
               a(2) = (  -0.500000   0.866025   0.000000 )  
               a(3) = (   0.000000   0.000000   2.232275 )  

     reciprocal axes: (cart. coord. in units 2 pi/alat)
               b(1) = (  1.000000  0.577350  0.000000 )  
               b(2) = (  0.000000  1.154701  0.000000 )  
               b(3) = (  0.000000  0.000000  0.447974 )  


     PseudoPot. # 1 for Se read from file:
     ../Pseudos/Se.rel-pbe-n-kjpaw_psl.0.2.UPF
     MD5 check sum: 45c28741602d7a872c405fe9dd485dc8
     Pseudo is Projector augmented-wave + core cor, Zval =  6.0
     Generated using "atomic" code by A. Dal Corso v.5.0.2 svn rev. 9415
     Shape of augmentation charge: PSQ
     Using radial grid of 1211 points,  6 beta functions with: 
                l(1) =   0
                l(2) =   0
                l(3) =   1
                l(4) =   1
                l(5) =   1
                l(6) =   1
     Q(r) pseudized with 0 coefficients 


     PseudoPot. # 2 for Nb read from file:
     ../Pseudos/Nb.rel-pbe-spn-kjpaw_psl.1.0.0.UPF
     MD5 check sum: 2306cb666db741a7975d44936f4113f9
     Pseudo is Projector augmented-wave + core cor, Zval = 13.0
     Generated using "atomic" code by A. Dal Corso v.6.2.2
     Shape of augmentation charge: PSQ
     Using radial grid of 1227 points, 10 beta functions with: 
                l(1) =   0
                l(2) =   0
                l(3) =   1
                l(4) =   1
                l(5) =   1
                l(6) =   1
                l(7) =   2
                l(8) =   2
                l(9) =   2
               l(10) =   2
     Q(r) pseudized with 0 coefficients 


     atomic species   valence    mass     pseudopotential
        Se             6.00    78.96000     Se( 1.00)
        Nb            13.00    92.90638     Nb( 1.00)

     12 Sym. Ops. (no inversion) found



   Cartesian axes

     site n.     atom                  positions (alat units)
         1           Se  tau(   1) = (   0.0000000   0.1924503   1.2770040  )
         2           Nb  tau(   2) = (   0.0000000   0.0000000   1.1161391  )
         3           Se  tau(   3) = (   0.0000000   0.1924503   0.9552741  )
         4           Se  tau(   4) = (  -0.1666667   0.4811254   1.2770040  )
         5           Nb  tau(   5) = (  -0.1666667   0.2886751   1.1161391  )
         6           Se  tau(   6) = (  -0.1666667   0.4811254   0.9552741  )
         7           Se  tau(   7) = (  -0.3333333   0.7698005   1.2770040  )
         8           Nb  tau(   8) = (  -0.3333333   0.5773503   1.1161391  )
         9           Se  tau(   9) = (  -0.3333333   0.7698005   0.9552741  )
        10           Se  tau(  10) = (   0.3333333   0.1924503   1.2770040  )
        11           Nb  tau(  11) = (   0.3333333   0.0000000   1.1161391  )
        12           Se  tau(  12) = (   0.3333333   0.1924503   0.9552741  )
        13           Se  tau(  13) = (   0.1666667   0.4811254   1.2770040  )
        14           Nb  tau(  14) = (   0.1666667   0.2886751   1.1161391  )
        15           Se  tau(  15) = (   0.1666667   0.4811254   0.9552741  )
        16           Se  tau(  16) = (   0.0000000   0.7698005   1.2770040  )
        17           Nb  tau(  17) = (   0.0000000   0.5773503   1.1161391  )
        18           Se  tau(  18) = (   0.0000000   0.7698005   0.9552741  )
        19           Se  tau(  19) = (   0.6666667   0.1924503   1.2770040  )
        20           Nb  tau(  20) = (   0.6666667   0.0000000   1.1161391  )
        21           Se  tau(  21) = (   0.6666667   0.1924503   0.9552741  )
        22           Se  tau(  22) = (   0.5000000   0.4811254   1.2770040  )
        23           Nb  tau(  23) = (   0.5000000   0.2886751   1.1161391  )
        24           Se  tau(  24) = (   0.5000000   0.4811254   0.9552741  )
        25           Se  tau(  25) = (   0.3333333   0.7698005   1.2770040  )
        26           Nb  tau(  26) = (   0.3333333   0.5773503   1.1161391  )
        27           Se  tau(  27) = (   0.3333333   0.7698005   0.9552741  )

     number of k points=     4  Gaussian smearing, width (Ry)=  0.0500
                       cart. coord. in units 2pi/alat
        k(    1) = (   0.0000000   0.0000000   0.0000000), wk =   0.0625000
        k(    2) = (   0.0000000   0.2886751   0.0000000), wk =   0.3750000
        k(    3) = (   0.0000000  -0.5773503   0.0000000), wk =   0.1875000
        k(    4) = (   0.2500000   0.4330127   0.0000000), wk =   0.3750000

     Dense  grid:   881733 G-vectors     FFT dimensions: (  96,  96, 216)

     Smooth grid:   332337 G-vectors     FFT dimensions: (  72,  72, 160)

     Estimated max dynamical RAM per process >     281.18 MB

     Estimated total dynamical RAM >      12.08 GB

     Initial potential from superposition of free atoms

     starting charge  224.98670, renormalised to  225.00000

     negative rho (up, down):  2.613E-02 0.000E+00
     Starting wfcs are  378 randomized atomic wfcs
     Checking if some PAW data can be deallocated... 

     total cpu time spent up to now is       32.0 secs

     Self-consistent Calculation

     iteration #  1     ecut=    30.00 Ry     beta= 0.40
     Davidson diagonalization with overlap
     ethr =  1.00E-02,  avg # of iterations =  2.0

     Threshold (ethr) on eigenvalues was too large:
     Diagonalizing with lowered threshold

     Davidson diagonalization with overlap
     ethr =  2.76E-04,  avg # of iterations =  2.5

     negative rho (up, down):  2.789E-02 0.000E+00

     total cpu time spent up to now is      141.3 secs

     total energy              =   -6424.80012232 Ry
     estimated scf accuracy    <       0.77753054 Ry

     iteration #  2     ecut=    30.00 Ry     beta= 0.40
     Davidson diagonalization with overlap
     ethr =  3.46E-04,  avg # of iterations =  2.0

     negative rho (up, down):  2.876E-02 0.000E+00

     total cpu time spent up to now is      194.5 secs

     total energy              =   -6424.85541994 Ry
     estimated scf accuracy    <       0.22679347 Ry

     iteration #  3     ecut=    30.00 Ry     beta= 0.40
     Davidson diagonalization with overlap
     ethr =  1.01E-04,  avg # of iterations =  4.0

     negative rho (up, down):  2.936E-02 0.000E+00

     total cpu time spent up to now is      249.2 secs

     total energy              =   -6424.88716887 Ry
     estimated scf accuracy    <       0.18474645 Ry

     iteration #  4     ecut=    30.00 Ry     beta= 0.40
     Davidson diagonalization with overlap
     ethr =  8.21E-05,  avg # of iterations =  2.2

     negative rho (up, down):  2.967E-02 0.000E+00

     total cpu time spent up to now is      296.2 secs

     total energy              =   -6424.90524398 Ry
     estimated scf accuracy    <       0.02316341 Ry

     iteration #  5     ecut=    30.00 Ry     beta= 0.40
     Davidson diagonalization with overlap
     ethr =  1.03E-05,  avg # of iterations =  5.8

     negative rho (up, down):  2.982E-02 0.000E+00

     total cpu time spent up to now is      357.3 secs

     total energy              =   -6424.90796428 Ry
     estimated scf accuracy    <       0.05064401 Ry

     iteration #  6     ecut=    30.00 Ry     beta= 0.40
     Davidson diagonalization with overlap
     ethr =  1.03E-05,  avg # of iterations =  2.2

     negative rho (up, down):  2.991E-02 0.000E+00

     total cpu time spent up to now is      409.0 secs

     total energy              =   -6424.91092684 Ry
     estimated scf accuracy    <       0.00208413 Ry

     iteration #  7     ecut=    30.00 Ry     beta= 0.40
     Davidson diagonalization with overlap
     c_bands:  1 eigenvalues not converged
     ethr =  9.26E-07,  avg # of iterations = 12.8

     negative rho (up, down):  2.995E-02 0.000E+00

     total cpu time spent up to now is      488.6 secs

     total energy              =   -6424.91146359 Ry
     estimated scf accuracy    <       0.00057805 Ry

     iteration #  8     ecut=    30.00 Ry     beta= 0.40
     Davidson diagonalization with overlap
     ethr =  2.57E-07,  avg # of iterations =  2.0

     negative rho (up, down):  2.997E-02 0.000E+00

     total cpu time spent up to now is      552.3 secs

     total energy              =   -6424.91146156 Ry
     estimated scf accuracy    <       0.00048157 Ry

     iteration #  9     ecut=    30.00 Ry     beta= 0.40
     Davidson diagonalization with overlap
     ethr =  2.14E-07,  avg # of iterations =  1.0

     negative rho (up, down):  2.999E-02 0.000E+00

     total cpu time spent up to now is      611.6 secs

     total energy              =   -6424.91148423 Ry
     estimated scf accuracy    <       0.00007952 Ry

     iteration # 10     ecut=    30.00 Ry     beta= 0.40
     Davidson diagonalization with overlap
     ethr =  3.53E-08,  avg # of iterations =  4.0

     negative rho (up, down):  3.000E-02 0.000E+00

     total cpu time spent up to now is      680.1 secs

     total energy              =   -6424.91148984 Ry
     estimated scf accuracy    <       0.00001929 Ry

     iteration # 11     ecut=    30.00 Ry     beta= 0.40
     Davidson diagonalization with overlap
     ethr =  8.57E-09,  avg # of iterations =  4.5

     negative rho (up, down):  3.000E-02 0.000E+00

     total cpu time spent up to now is      753.6 secs

     total energy              =   -6424.91149452 Ry
     estimated scf accuracy    <       0.00000481 Ry

     iteration # 12     ecut=    30.00 Ry     beta= 0.40
     Davidson diagonalization with overlap
     ethr =  2.14E-09,  avg # of iterations =  3.0

     negative rho (up, down):  3.001E-02 0.000E+00

     total cpu time spent up to now is      816.6 secs

     End of self-consistent calculation

          k = 0.0000 0.0000 0.0000 ( 41489 PWs)   bands (ev):

   -56.6699 -56.6699 -56.6552 -56.6552 -56.6550 -56.6550 -56.6550 -56.6550
   -56.6550 -56.6550 -56.6550 -56.6550 -56.6550 -56.6550 -56.6476 -56.6476
   -56.6475 -56.6475 -34.2020 -34.2020 -34.1845 -34.1845 -34.1691 -34.1691
   -34.1689 -34.1689 -34.1689 -34.1689 -34.1689 -34.1689 -34.1689 -34.1689
   -34.1689 -34.1689 -34.1191 -34.1191 -32.1564 -32.1564 -32.1205 -32.1205
   -32.1097 -32.1097 -32.1097 -32.1097 -32.1097 -32.1097 -32.1096 -32.1096
   -32.1096 -32.1096 -32.1096 -32.1096 -32.0625 -32.0625 -32.0507 -32.0507
   -32.0414 -32.0414 -32.0233 -32.0233 -32.0232 -32.0232 -32.0232 -32.0232
   -32.0232 -32.0232 -32.0232 -32.0232 -32.0231 -32.0231 -31.9668 -31.9668
   -15.1044 -15.1044 -14.1660 -14.1660 -14.1660 -14.1660 -14.1659 -14.1659
   -14.1659 -14.1659 -14.1658 -14.1658 -14.1658 -14.1658 -14.1621 -14.1621
   -13.7341 -13.7341 -13.7340 -13.7340 -13.7340 -13.7340 -13.7339 -13.7339
   -13.7338 -13.7338 -13.7338 -13.7338 -13.6224 -13.6224 -13.5838 -13.5838
   -13.4636 -13.4636 -13.4619 -13.4619  -6.3889  -6.3889  -5.9713  -5.9713
    -5.9181  -5.9181  -5.9181  -5.9181  -5.9181  -5.9181  -5.9179  -5.9179
    -5.9179  -5.9179  -5.9179  -5.9179  -5.8368  -5.8368  -5.5545  -5.5545
    -5.3867  -5.3867  -5.0881  -5.0881  -5.0880  -5.0880  -5.0880  -5.0880
    -5.0874  -5.0874  -5.0873  -5.0873  -5.0873  -5.0873  -5.0546  -5.0546
    -4.9756  -4.9756  -4.9756  -4.9756  -4.9756  -4.9756  -4.9752  -4.9752
    -4.9752  -4.9752  -4.9751  -4.9751  -4.9651  -4.9651  -4.7001  -4.7001
    -4.6549  -4.6549  -4.1248  -4.1248  -3.9258  -3.9258  -3.6628  -3.6628
    -3.6628  -3.6628  -3.6628  -3.6628  -3.6627  -3.6627  -3.6627  -3.6627
    -3.6627  -3.6627  -3.4792  -3.4792  -3.3799  -3.3799  -3.2373  -3.2373
    -3.2193  -3.2193  -2.9372  -2.9372  -2.9036  -2.9036  -2.9036  -2.9036
    -2.9036  -2.9036  -2.9035  -2.9035  -2.9035  -2.9035  -2.9035  -2.9035
    -2.5699  -2.5699  -2.5472  -2.5472  -2.5472  -2.5472  -2.5472  -2.5472
    -2.5471  -2.5471  -2.5471  -2.5471  -2.5471  -2.5471  -2.3596  -2.3596
    -1.9049  -1.9049  -1.9048  -1.9048  -1.9048  -1.9048  -1.9048  -1.9048
    -1.9048  -1.9048  -1.9047  -1.9047  -1.1146  -1.1146  -0.9754  -0.9754
    -0.9607  -0.9607   0.3283   0.3283   0.3451   0.3451   0.8544   0.8544
     0.8544   0.8544   0.8544   0.8544   0.8544   0.8544   0.8544   0.8544
     0.8544   0.8544   0.9892   0.9892   0.9893   0.9893   0.9893   0.9893
     0.9893   0.9893   0.9894   0.9894   0.9894   0.9894   1.1995   1.1996
     1.3953   1.3953   1.4006   1.4006   1.5623   1.5623   1.7237   1.7238

          k = 0.0000 0.2887 0.0000 ( 41486 PWs)   bands (ev):

   -56.6692 -56.6692 -56.6606 -56.6606 -56.6571 -56.6571 -56.6570 -56.6570
   -56.6531 -56.6531 -56.6531 -56.6531 -56.6511 -56.6511 -56.6471 -56.6471
   -56.6471 -56.6471 -34.1978 -34.1978 -34.1819 -34.1819 -34.1815 -34.1815
   -34.1810 -34.1810 -34.1753 -34.1753 -34.1648 -34.1648 -34.1606 -34.1606
   -34.1526 -34.1526 -34.1241 -34.1241 -32.1521 -32.1521 -32.1370 -32.1370
   -32.1297 -32.1297 -32.1221 -32.1221 -32.1219 -32.1219 -32.0956 -32.0956
   -32.0913 -32.0913 -32.0747 -32.0747 -32.0537 -32.0537 -32.0457 -32.0457
   -32.0431 -32.0431 -32.0283 -32.0283 -32.0282 -32.0282 -32.0261 -32.0261
   -32.0247 -32.0247 -32.0239 -32.0239 -32.0192 -32.0192 -31.9780 -31.9780
   -15.0295 -15.0295 -14.5069 -14.5068 -14.2999 -14.2999 -14.2921 -14.2921
   -14.1276 -14.1276 -13.9893 -13.9893 -13.9777 -13.9777 -13.8908 -13.8906
   -13.8882 -13.8881 -13.7917 -13.7917 -13.7911 -13.7911 -13.6725 -13.6725
   -13.6508 -13.6508 -13.6500 -13.6500 -13.6378 -13.6378 -13.6119 -13.6117
   -13.4905 -13.4905 -13.4888 -13.4888  -6.3421  -6.3420  -6.2876  -6.2876
    -6.0933  -6.0933  -6.0870  -6.0870  -5.8794  -5.8794  -5.8356  -5.8356
    -5.7801  -5.7801  -5.7411  -5.7411  -5.7187  -5.7185  -5.6955  -5.6955
    -5.6852  -5.6852  -5.4450  -5.4449  -5.3056  -5.3056  -5.2477  -5.2477
    -5.0954  -5.0954  -5.0803  -5.0803  -4.9713  -4.9713  -4.9671  -4.9671
    -4.9589  -4.9589  -4.9329  -4.9327  -4.8141  -4.8141  -4.7957  -4.7957
    -4.7240  -4.7240  -4.6833  -4.6833  -4.3888  -4.3887  -4.3678  -4.3678
    -4.3583  -4.3583  -4.1631  -4.1631  -4.0004  -4.0004  -3.9488  -3.9488
    -3.9060  -3.9060  -3.8741  -3.8741  -3.7713  -3.7713  -3.7642  -3.7642
    -3.6919  -3.6917  -3.3704  -3.3704  -3.3393  -3.3393  -3.2042  -3.2038
    -3.1140  -3.1140  -3.1012  -3.1012  -3.0011  -3.0010  -2.9635  -2.9635
    -2.9516  -2.9516  -2.9470  -2.9470  -2.8947  -2.8946  -2.8919  -2.8919
    -2.7394  -2.7394  -2.7381  -2.7381  -2.6332  -2.6332  -2.6210  -2.6210
    -2.6098  -2.6097  -2.5369  -2.5369  -2.3892  -2.3891  -2.3347  -2.3347
    -1.8618  -1.8618  -1.8088  -1.8088  -1.8012  -1.8012  -1.7377  -1.7377
    -1.7178  -1.7178  -1.6617  -1.6615  -1.2850  -1.2850  -1.1513  -1.1513
    -1.0377  -1.0375   0.5555   0.5555   0.5605   0.5605   0.7055   0.7055
     0.7166   0.7166   0.8243   0.8243   0.8266   0.8268   0.8425   0.8425
     0.8754   0.8755   0.9485   0.9486   1.0354   1.0354   1.0448   1.0448
     1.1150   1.1151   1.1214   1.1214   1.1392   1.1392   1.1844   1.1846
     1.1951   1.1951   1.3098   1.3099   1.3693   1.3724   1.3899   1.3901

          k = 0.0000-0.5774 0.0000 ( 41552 PWs)   bands (ev):

   -56.6654 -56.6654 -56.6653 -56.6653 -56.6581 -56.6581 -56.6581 -56.6581
   -56.6507 -56.6507 -56.6503 -56.6503 -56.6502 -56.6502 -56.6502 -56.6502
   -56.6502 -56.6502 -34.1916 -34.1916 -34.1916 -34.1916 -34.1875 -34.1875
   -34.1801 -34.1801 -34.1800 -34.1800 -34.1636 -34.1636 -34.1579 -34.1579
   -34.1356 -34.1356 -34.1356 -34.1356 -32.1486 -32.1486 -32.1443 -32.1443
   -32.1442 -32.1442 -32.1256 -32.1256 -32.1255 -32.1255 -32.0892 -32.0892
   -32.0836 -32.0836 -32.0503 -32.0503 -32.0502 -32.0502 -32.0406 -32.0406
   -32.0406 -32.0406 -32.0379 -32.0379 -32.0379 -32.0379 -32.0293 -32.0293
   -32.0268 -32.0268 -32.0245 -32.0245 -32.0015 -32.0015 -32.0015 -32.0015
   -14.8174 -14.8174 -14.8173 -14.8173 -14.3482 -14.3482 -14.3377 -14.3377
   -14.0302 -14.0302 -14.0301 -14.0301 -13.8122 -13.8122 -13.8114 -13.8114
   -13.8080 -13.8080 -13.8079 -13.8079 -13.7835 -13.7835 -13.7835 -13.7835
   -13.7831 -13.7831 -13.5648 -13.5648 -13.5611 -13.5611 -13.5610 -13.5610
   -13.5596 -13.5596 -13.5596 -13.5596  -6.5125  -6.5125  -6.0847  -6.0847
    -6.0847  -6.0847  -6.0584  -6.0584  -6.0584  -6.0584  -6.0153  -6.0153
    -6.0152  -6.0152  -5.6137  -5.6137  -5.6136  -5.6136  -5.6057  -5.6057
    -5.6036  -5.6036  -5.5825  -5.5825  -5.5063  -5.5063  -5.5063  -5.5063
    -5.0693  -5.0693  -5.0441  -5.0441  -4.9379  -4.9379  -4.8717  -4.8717
    -4.8716  -4.8716  -4.8587  -4.8587  -4.8587  -4.8587  -4.5425  -4.5425
    -4.4583  -4.4583  -4.2900  -4.2900  -4.2899  -4.2899  -4.1609  -4.1609
    -4.1609  -4.1609  -4.0511  -4.0511  -4.0511  -4.0511  -3.9971  -3.9971
    -3.9531  -3.9531  -3.9469  -3.9469  -3.7735  -3.7735  -3.7733  -3.7733
    -3.5904  -3.5904  -3.5904  -3.5904  -3.5521  -3.5521  -3.5521  -3.5521
    -3.1350  -3.1350  -3.1348  -3.1348  -3.1334  -3.1334  -3.0617  -3.0617
    -3.0325  -3.0325  -2.9568  -2.9568  -2.9567  -2.9567  -2.9294  -2.9294
    -2.9294  -2.9294  -2.8852  -2.8852  -2.8852  -2.8852  -2.4641  -2.4641
    -2.4042  -2.4042  -2.4042  -2.4042  -2.3401  -2.3401  -2.3332  -2.3332
    -1.7743  -1.7743  -1.7306  -1.7306  -1.6584  -1.6584  -1.5657  -1.5657
    -1.5656  -1.5656  -1.4507  -1.4507  -1.4507  -1.4507  -1.2785  -1.2785
    -1.2783  -1.2783   0.6079   0.6079   0.6218   0.6218   0.8393   0.8393
     0.8393   0.8393   0.8548   0.8548   0.8548   0.8548   0.8689   0.8689
     0.8691   0.8691   0.9028   0.9028   1.0394   1.0394   1.0394   1.0395
     1.0762   1.0762   1.0865   1.0868   1.1339   1.1340   1.1675   1.1675
     1.1676   1.1676   1.2699   1.2699   1.2700   1.2700   1.2953   1.2953

          k = 0.2500 0.4330 0.0000 ( 41541 PWs)   bands (ev):

   -56.6667 -56.6667 -56.6625 -56.6625 -56.6625 -56.6625 -56.6535 -56.6535
   -56.6535 -56.6535 -56.6507 -56.6507 -56.6507 -56.6507 -56.6493 -56.6493
   -56.6489 -56.6489 -34.1959 -34.1909 -34.1905 -34.1904 -34.1838 -34.1837
   -34.1833 -34.1796 -34.1796 -34.1775 -34.1706 -34.1705 -34.1477 -34.1477
   -34.1453 -34.1453 -34.1325 -34.1317 -32.1532 -32.1495 -32.1494 -32.1399
   -32.1397 -32.1397 -32.1325 -32.1204 -32.1203 -32.1168 -32.1074 -32.1073
   -32.0629 -32.0629 -32.0625 -32.0625 -32.0476 -32.0470 -32.0464 -32.0419
   -32.0417 -32.0383 -32.0353 -32.0352 -32.0349 -32.0349 -32.0295 -32.0295
   -32.0290 -32.0290 -32.0179 -32.0179 -32.0149 -32.0148 -31.9960 -31.9942
   -14.8866 -14.8852 -14.6261 -14.6260 -14.6219 -14.6218 -14.0617 -14.0616
   -14.0471 -14.0470 -14.0291 -14.0290 -13.9415 -13.9415 -13.9412 -13.9411
   -13.8140 -13.7945 -13.7944 -13.7858 -13.7803 -13.7802 -13.7157 -13.6886
   -13.6721 -13.6720 -13.6708 -13.6707 -13.5638 -13.5637 -13.5630 -13.5629
   -13.5596 -13.5580 -13.5184 -13.5170  -6.3925  -6.3924  -6.3777  -6.3777
    -6.1925  -6.1562  -6.1000  -6.0983  -5.8780  -5.8480  -5.8045  -5.8044
    -5.8031  -5.8031  -5.7951  -5.7951  -5.7885  -5.7885  -5.7737  -5.6699
    -5.6208  -5.6207  -5.6066  -5.5638  -5.5638  -5.4752  -5.1841  -5.1840
    -5.0621  -5.0621  -4.9540  -4.9539  -4.9464  -4.9463  -4.9230  -4.9230
    -4.9152  -4.9151  -4.8721  -4.8551  -4.8144  -4.8014  -4.7037  -4.7037
    -4.7018  -4.7018  -4.2328  -4.1638  -4.1638  -4.1378  -4.1054  -4.1008
    -4.0993  -4.0813  -4.0813  -4.0769  -4.0769  -4.0750  -4.0750  -4.0247
    -4.0247  -4.0156  -3.9917  -3.9651  -3.9651  -3.9589  -3.6381  -3.6139
    -3.6059  -3.5746  -3.4877  -3.4877  -3.4240  -3.4239  -3.3968  -3.3968
    -3.3317  -3.3317  -3.2165  -3.1904  -3.0528  -3.0527  -3.0495  -3.0495
    -3.0358  -3.0356  -3.0356  -3.0275  -3.0157  -3.0104  -3.0104  -2.9058
    -2.9013  -2.8458  -2.7776  -2.7776  -2.7334  -2.7334  -2.6862  -2.6862
    -2.5973  -2.5972  -2.4163  -2.4162  -2.3419  -2.2952  -2.2952  -2.2144
    -1.7378  -1.7377  -1.6666  -1.6666  -1.6333  -1.6332  -1.5694  -1.5693
    -1.5391  -1.5145  -1.5144  -1.4910  -1.4910  -1.4370  -1.4196  -1.3183
    -1.1903  -1.1878   0.7209   0.7209   0.7282   0.7282   0.7502   0.7502
     0.7563   0.7687   0.7687   0.7843   0.8020   0.8063   0.8918   0.8918
     0.9108   0.9185   0.9185   0.9464   0.9614   0.9981   1.0163   1.0163
     1.0280   1.0280   1.0353   1.0353   1.1161   1.1161   1.1333   1.1333
     1.1479   1.1479   1.1975   1.2418   1.2529   1.2530   1.2932   1.3246

     the Fermi energy is    -1.5215 ev

!    total energy              =   -6424.91149419 Ry

     total all-electron energy =   -156259.009306 Ry
     estimated scf accuracy    <       0.00000095 Ry
     smearing contrib. (-TS)   =      -0.25355673 Ry
     internal energy E=F+TS    =   -6424.65793745 Ry

     The total energy is F=E-TS. E is the sum of the following terms:
     one-electron contribution =   -9295.62280148 Ry
     hartree contribution      =    4665.71787384 Ry
     xc contribution           =    -410.35754885 Ry
     ewald contribution        =    3514.11684541 Ry
     one-center paw contrib.   =   -4898.51230638 Ry

     convergence has been achieved in  12 iterations

     Writing output data file ./outdir/nbse2.save/
 
     init_run     :     22.29s CPU     27.65s WALL (       1 calls)
     electrons    :    664.98s CPU    784.89s WALL (       1 calls)

     Called by init_run:
     wfcinit      :     18.43s CPU     22.14s WALL (       1 calls)
     potinit      :      0.84s CPU      1.10s WALL (       1 calls)
     hinit0       :      1.47s CPU      1.89s WALL (       1 calls)

     Called by electrons:
     c_bands      :    489.52s CPU    562.72s WALL (      13 calls)
     sum_band     :    153.70s CPU    193.32s WALL (      13 calls)
     v_of_rho     :      1.92s CPU      2.21s WALL (      13 calls)
     newd         :     11.76s CPU     18.21s WALL (      13 calls)
     PAW_pot      :      3.51s CPU      3.77s WALL (      13 calls)
     mix_rho      :      3.45s CPU      3.86s WALL (      13 calls)

     Called by c_bands:
     init_us_2    :      2.34s CPU      2.36s WALL (     108 calls)
     cegterg      :    475.63s CPU    548.68s WALL (      52 calls)

     Called by *egterg:
     cdiaghg      :     37.09s CPU     37.20s WALL (     240 calls)
     h_psi        :    309.58s CPU    377.13s WALL (     248 calls)
     s_psi        :     34.85s CPU     34.93s WALL (     248 calls)
     g_psi        :      0.80s CPU      0.79s WALL (     192 calls)

     Called by h_psi:
     h_psi:calbec :     31.36s CPU     33.81s WALL (     248 calls)
     vloc_psi     :    250.17s CPU    313.57s WALL (     248 calls)
     add_vuspsi   :     26.81s CPU     27.33s WALL (     248 calls)

     General routines
     calbec       :     44.00s CPU     47.69s WALL (     300 calls)
     fft          :      2.46s CPU      3.43s WALL (     276 calls)
     ffts         :      0.39s CPU      0.73s WALL (     104 calls)
     fftw         :    231.42s CPU    317.97s WALL (  164944 calls)
     interpolate  :      0.74s CPU      1.07s WALL (      52 calls)
 
     Parallel routines
     fft_scatt_xy :     18.92s CPU     20.49s WALL (  165324 calls)
     fft_scatt_yz :    127.47s CPU    207.63s WALL (  165324 calls)
 
     PWSCF        :  11m33.90s CPU  13m40.89s WALL

 
   This run was terminated on:  13:13:17   6Sep2020            

=------------------------------------------------------------------------------=
   JOB DONE.
=------------------------------------------------------------------------------=
