
     Program PWSCF v.6.6 starts on  6Sep2020 at 13:13:57 

     This program is part of the open-source Quantum ESPRESSO suite
     for quantum simulation of materials; please cite
         "P. Giannozzi et al., J. Phys.:Condens. Matter 21 395502 (2009);
         "P. Giannozzi et al., J. Phys.:Condens. Matter 29 465901 (2017);
          URL http://www.quantum-espresso.org", 
     in publications or presentations arising from this work. More details at
     http://www.quantum-espresso.org/quote

     Parallel version (MPI), running on    44 processors

     MPI processes distributed on     1 nodes
     R & G space division:  proc/nbgrp/npool/nimage =      44
     Fft bands division:     nmany     =       1
     Reading input from 2-bands.in

     Current dimensions of program PWSCF are:
     Max number of different atomic species (ntypx) = 10
     Max number of k-points (npk) =  40000
     Max angular momentum in pseudopotentials (lmaxx) =  3

     Atomic positions and unit cell read from directory:
     ./outdir/nbse2.save/
     Atomic positions from file used, from input discarded
 
     file Se.rel-pbe-n-kjpaw_psl.0.2.UPF: wavefunction(s)  4S 4P renormalized
     file Nb.rel-pbe-spn-kjpaw_psl.1.0.0.UPF: wavefunction(s)  4S 4P 4P 4D renormalized

     Subspace diagonalization in iterative solution of the eigenvalue problem:
     a serial algorithm will be used

     Found symmetry operation: I + ( -0.0000  0.3333  0.0000)
     This is a supercell, fractional translations are disabled
 
     Parallelization info
     --------------------
     sticks:   dense  smooth     PW     G-vecs:    dense   smooth      PW
     Min         141      61     16                20035     5743     810
     Max         142      62     17                20043     5752     817
     Sum        6205    2713    745               881733   252933   35857
 


     bravais-lattice index     =            4
     lattice parameter (alat)  =      19.7820  a.u.
     unit-cell volume          =   14965.4900 (a.u.)^3
     number of atoms/cell      =           27
     number of atomic types    =            2
     number of electrons       =       225.00
     number of Kohn-Sham states=          272
     kinetic-energy cutoff     =      25.0000  Ry
     charge density cutoff     =     230.0000  Ry
     Exchange-correlation= SLA PW PBX PBC
                           (   1   4   3   4   0   0   0)
     Non magnetic calculation with spin-orbit


     celldm(1)=  19.782031  celldm(2)=   0.000000  celldm(3)=   2.232275
     celldm(4)=   0.000000  celldm(5)=   0.000000  celldm(6)=   0.000000

     crystal axes: (cart. coord. in units of alat)
               a(1) = (   1.000000   0.000000   0.000000 )  
               a(2) = (  -0.500000   0.866025   0.000000 )  
               a(3) = (   0.000000   0.000000   2.232275 )  

     reciprocal axes: (cart. coord. in units 2 pi/alat)
               b(1) = (  1.000000  0.577350  0.000000 )  
               b(2) = (  0.000000  1.154701  0.000000 )  
               b(3) = (  0.000000  0.000000  0.447974 )  


     PseudoPot. # 1 for Se read from file:
     ../Pseudos/Se.rel-pbe-n-kjpaw_psl.0.2.UPF
     MD5 check sum: 45c28741602d7a872c405fe9dd485dc8
     Pseudo is Projector augmented-wave + core cor, Zval =  6.0
     Generated using "atomic" code by A. Dal Corso v.5.0.2 svn rev. 9415
     Shape of augmentation charge: PSQ
     Using radial grid of 1211 points,  6 beta functions with: 
                l(1) =   0
                l(2) =   0
                l(3) =   1
                l(4) =   1
                l(5) =   1
                l(6) =   1
     Q(r) pseudized with 0 coefficients 


     PseudoPot. # 2 for Nb read from file:
     ../Pseudos/Nb.rel-pbe-spn-kjpaw_psl.1.0.0.UPF
     MD5 check sum: 2306cb666db741a7975d44936f4113f9
     Pseudo is Projector augmented-wave + core cor, Zval = 13.0
     Generated using "atomic" code by A. Dal Corso v.6.2.2
     Shape of augmentation charge: PSQ
     Using radial grid of 1227 points, 10 beta functions with: 
                l(1) =   0
                l(2) =   0
                l(3) =   1
                l(4) =   1
                l(5) =   1
                l(6) =   1
                l(7) =   2
                l(8) =   2
                l(9) =   2
               l(10) =   2
     Q(r) pseudized with 0 coefficients 


     atomic species   valence    mass     pseudopotential
        Se             6.00    78.96000     Se( 1.00)
        Nb            13.00    92.90638     Nb( 1.00)

     12 Sym. Ops. (no inversion) found



   Cartesian axes

     site n.     atom                  positions (alat units)
         1           Se  tau(   1) = (   0.0000000   0.1924503   1.2770040  )
         2           Nb  tau(   2) = (   0.0000000   0.0000000   1.1161391  )
         3           Se  tau(   3) = (   0.0000000   0.1924503   0.9552741  )
         4           Se  tau(   4) = (  -0.1666667   0.4811254   1.2770040  )
         5           Nb  tau(   5) = (  -0.1666667   0.2886751   1.1161391  )
         6           Se  tau(   6) = (  -0.1666667   0.4811254   0.9552741  )
         7           Se  tau(   7) = (  -0.3333333   0.7698005   1.2770040  )
         8           Nb  tau(   8) = (  -0.3333333   0.5773503   1.1161391  )
         9           Se  tau(   9) = (  -0.3333333   0.7698005   0.9552741  )
        10           Se  tau(  10) = (   0.3333333   0.1924503   1.2770040  )
        11           Nb  tau(  11) = (   0.3333333   0.0000000   1.1161391  )
        12           Se  tau(  12) = (   0.3333333   0.1924503   0.9552741  )
        13           Se  tau(  13) = (   0.1666667   0.4811254   1.2770040  )
        14           Nb  tau(  14) = (   0.1666667   0.2886751   1.1161391  )
        15           Se  tau(  15) = (   0.1666667   0.4811254   0.9552741  )
        16           Se  tau(  16) = (   0.0000000   0.7698005   1.2770040  )
        17           Nb  tau(  17) = (   0.0000000   0.5773503   1.1161391  )
        18           Se  tau(  18) = (   0.0000000   0.7698005   0.9552741  )
        19           Se  tau(  19) = (   0.6666667   0.1924503   1.2770040  )
        20           Nb  tau(  20) = (   0.6666667   0.0000000   1.1161391  )
        21           Se  tau(  21) = (   0.6666667   0.1924503   0.9552741  )
        22           Se  tau(  22) = (   0.5000000   0.4811254   1.2770040  )
        23           Nb  tau(  23) = (   0.5000000   0.2886751   1.1161391  )
        24           Se  tau(  24) = (   0.5000000   0.4811254   0.9552741  )
        25           Se  tau(  25) = (   0.3333333   0.7698005   1.2770040  )
        26           Nb  tau(  26) = (   0.3333333   0.5773503   1.1161391  )
        27           Se  tau(  27) = (   0.3333333   0.7698005   0.9552741  )

     number of k points=    61  Gaussian smearing, width (Ry)=  0.0500
                       cart. coord. in units 2pi/alat
        k(    1) = (   0.0000000   0.5773503   0.0000000), wk =   0.0163934
        k(    2) = (   0.0000000   0.5484828   0.0000000), wk =   0.0163934
        k(    3) = (   0.0000000   0.5196152   0.0000000), wk =   0.0163934
        k(    4) = (   0.0000000   0.4907477   0.0000000), wk =   0.0163934
        k(    5) = (   0.0000000   0.4618802   0.0000000), wk =   0.0163934
        k(    6) = (   0.0000000   0.4330127   0.0000000), wk =   0.0163934
        k(    7) = (   0.0000000   0.4041452   0.0000000), wk =   0.0163934
        k(    8) = (   0.0000000   0.3752777   0.0000000), wk =   0.0163934
        k(    9) = (   0.0000000   0.3464102   0.0000000), wk =   0.0163934
        k(   10) = (   0.0000000   0.3175426   0.0000000), wk =   0.0163934
        k(   11) = (   0.0000000   0.2886751   0.0000000), wk =   0.0163934
        k(   12) = (   0.0000000   0.2598076   0.0000000), wk =   0.0163934
        k(   13) = (   0.0000000   0.2309401   0.0000000), wk =   0.0163934
        k(   14) = (   0.0000000   0.2020726   0.0000000), wk =   0.0163934
        k(   15) = (   0.0000000   0.1732051   0.0000000), wk =   0.0163934
        k(   16) = (   0.0000000   0.1443376   0.0000000), wk =   0.0163934
        k(   17) = (   0.0000000   0.1154701   0.0000000), wk =   0.0163934
        k(   18) = (   0.0000000   0.0866025   0.0000000), wk =   0.0163934
        k(   19) = (   0.0000000   0.0577350   0.0000000), wk =   0.0163934
        k(   20) = (   0.0000000   0.0288675   0.0000000), wk =   0.0163934
        k(   21) = (   0.0000000   0.0000000   0.0000000), wk =   0.0163934
        k(   22) = (  -0.0166667   0.0288675   0.0000000), wk =   0.0163934
        k(   23) = (  -0.0333333   0.0577350   0.0000000), wk =   0.0163934
        k(   24) = (  -0.0500000   0.0866025   0.0000000), wk =   0.0163934
        k(   25) = (  -0.0666667   0.1154701   0.0000000), wk =   0.0163934
        k(   26) = (  -0.0833333   0.1443376   0.0000000), wk =   0.0163934
        k(   27) = (  -0.1000000   0.1732051   0.0000000), wk =   0.0163934
        k(   28) = (  -0.1166667   0.2020726   0.0000000), wk =   0.0163934
        k(   29) = (  -0.1333333   0.2309401   0.0000000), wk =   0.0163934
        k(   30) = (  -0.1500000   0.2598076   0.0000000), wk =   0.0163934
        k(   31) = (  -0.1666667   0.2886751   0.0000000), wk =   0.0163934
        k(   32) = (  -0.1833333   0.3175426   0.0000000), wk =   0.0163934
        k(   33) = (  -0.2000000   0.3464102   0.0000000), wk =   0.0163934
        k(   34) = (  -0.2166667   0.3752777   0.0000000), wk =   0.0163934
        k(   35) = (  -0.2333333   0.4041452   0.0000000), wk =   0.0163934
        k(   36) = (  -0.2500000   0.4330127   0.0000000), wk =   0.0163934
        k(   37) = (  -0.2666667   0.4618802   0.0000000), wk =   0.0163934
        k(   38) = (  -0.2833333   0.4907477   0.0000000), wk =   0.0163934
        k(   39) = (  -0.3000000   0.5196152   0.0000000), wk =   0.0163934
        k(   40) = (  -0.3166667   0.5484828   0.0000000), wk =   0.0163934
        k(   41) = (  -0.3333333   0.5773503   0.0000000), wk =   0.0163934
        k(   42) = (  -0.3166667   0.5773503   0.0000000), wk =   0.0163934
        k(   43) = (  -0.3000000   0.5773503   0.0000000), wk =   0.0163934
        k(   44) = (  -0.2833333   0.5773503   0.0000000), wk =   0.0163934
        k(   45) = (  -0.2666667   0.5773503   0.0000000), wk =   0.0163934
        k(   46) = (  -0.2500000   0.5773503   0.0000000), wk =   0.0163934
        k(   47) = (  -0.2333333   0.5773503   0.0000000), wk =   0.0163934
        k(   48) = (  -0.2166667   0.5773503   0.0000000), wk =   0.0163934
        k(   49) = (  -0.2000000   0.5773503   0.0000000), wk =   0.0163934
        k(   50) = (  -0.1833333   0.5773503   0.0000000), wk =   0.0163934
        k(   51) = (  -0.1666667   0.5773503   0.0000000), wk =   0.0163934
        k(   52) = (  -0.1500000   0.5773503   0.0000000), wk =   0.0163934
        k(   53) = (  -0.1333333   0.5773503   0.0000000), wk =   0.0163934
        k(   54) = (  -0.1166667   0.5773503   0.0000000), wk =   0.0163934
        k(   55) = (  -0.1000000   0.5773503   0.0000000), wk =   0.0163934
        k(   56) = (  -0.0833333   0.5773503   0.0000000), wk =   0.0163934
        k(   57) = (  -0.0666667   0.5773503   0.0000000), wk =   0.0163934
        k(   58) = (  -0.0500000   0.5773503   0.0000000), wk =   0.0163934
        k(   59) = (  -0.0333333   0.5773503   0.0000000), wk =   0.0163934
        k(   60) = (  -0.0166667   0.5773503   0.0000000), wk =   0.0163934
        k(   61) = (   0.0000000   0.5773503   0.0000000), wk =   0.0163934

     Dense  grid:   881733 G-vectors     FFT dimensions: (  96,  96, 216)

     Smooth grid:   252933 G-vectors     FFT dimensions: (  64,  64, 144)

     Estimated max dynamical RAM per process >     223.86 MB

     Estimated total dynamical RAM >       9.62 GB

     The potential is recalculated from file :
     ./outdir/nbse2.save/charge-density


     negative rho (up, down):  3.001E-02 0.000E+00
     Starting wfcs are  378 randomized atomic wfcs
     Checking if some PAW data can be deallocated... 

     Band Structure Calculation
     Davidson diagonalization with overlap
     c_bands:  2 eigenvalues not converged
     c_bands:  2 eigenvalues not converged
     c_bands:  2 eigenvalues not converged
     c_bands:  2 eigenvalues not converged
     c_bands:  2 eigenvalues not converged
     c_bands:  2 eigenvalues not converged
     c_bands:  2 eigenvalues not converged
     c_bands:  2 eigenvalues not converged
     c_bands:  2 eigenvalues not converged
     c_bands:  2 eigenvalues not converged
     c_bands:  2 eigenvalues not converged
     c_bands:  4 eigenvalues not converged
     c_bands:  1 eigenvalues not converged
     c_bands:  2 eigenvalues not converged
     c_bands:  2 eigenvalues not converged
     c_bands:  2 eigenvalues not converged
     c_bands:  1 eigenvalues not converged
     c_bands:  1 eigenvalues not converged
     c_bands:  1 eigenvalues not converged
     c_bands:  1 eigenvalues not converged
     c_bands:  1 eigenvalues not converged
     c_bands:  1 eigenvalues not converged
     c_bands:  1 eigenvalues not converged
     c_bands:  2 eigenvalues not converged
     c_bands:  2 eigenvalues not converged
     c_bands:  1 eigenvalues not converged

     ethr =  4.44E-12,  avg # of iterations = 96.9

     total cpu time spent up to now is     7103.7 secs

     End of band structure calculation

          k = 0.0000 0.5774 0.0000 ( 31588 PWs)   bands (ev):

   -56.5767 -56.5767 -56.5755 -56.5755 -56.5697 -56.5697 -56.5692 -56.5692
   -56.5672 -56.5672 -56.5634 -56.5634 -56.5634 -56.5634 -56.5630 -56.5630
   -56.5613 -56.5613 -34.0673 -34.0673 -34.0658 -34.0658 -34.0652 -34.0652
   -34.0541 -34.0541 -34.0530 -34.0530 -34.0341 -34.0341 -34.0281 -34.0281
   -34.0043 -34.0043 -34.0032 -34.0032 -32.0507 -32.0507 -32.0431 -32.0431
   -32.0424 -32.0424 -32.0239 -32.0239 -32.0233 -32.0233 -31.9842 -31.9842
   -31.9784 -31.9784 -31.9425 -31.9425 -31.9415 -31.9415 -31.9316 -31.9316
   -31.9310 -31.9310 -31.9290 -31.9290 -31.9280 -31.9280 -31.9205 -31.9205
   -31.9180 -31.9180 -31.9154 -31.9154 -31.8906 -31.8906 -31.8895 -31.8895
   -14.8133 -14.8133 -14.8130 -14.8130 -14.3441 -14.3441 -14.3337 -14.3337
   -14.0266 -14.0266 -14.0264 -14.0264 -13.8093 -13.8093 -13.8084 -13.8084
   -13.8036 -13.8036 -13.8033 -13.8033 -13.7793 -13.7793 -13.7792 -13.7792
   -13.7789 -13.7789 -13.5628 -13.5628 -13.5591 -13.5591 -13.5588 -13.5588
   -13.5576 -13.5576 -13.5574 -13.5574  -6.4982  -6.4982  -6.0675  -6.0675
    -6.0674  -6.0674  -6.0411  -6.0411  -6.0410  -6.0410  -5.9936  -5.9936
    -5.9933  -5.9933  -5.5922  -5.5922  -5.5918  -5.5918  -5.5915  -5.5915
    -5.5757  -5.5757  -5.5546  -5.5546  -5.4839  -5.4839  -5.4837  -5.4837
    -5.0499  -5.0499  -5.0247  -5.0247  -4.9118  -4.9118  -4.8472  -4.8472
    -4.8470  -4.8470  -4.8330  -4.8330  -4.8327  -4.8327  -4.5153  -4.5153
    -4.4329  -4.4329  -4.2492  -4.2492  -4.2489  -4.2489  -4.1313  -4.1313
    -4.1312  -4.1312  -4.0212  -4.0212  -4.0211  -4.0211  -3.9542  -3.9542
    -3.9136  -3.9136  -3.8997  -3.8997  -3.7400  -3.7400  -3.7397  -3.7397
    -3.5741  -3.5741  -3.5740  -3.5740  -3.5368  -3.5368  -3.5367  -3.5367
    -3.1007  -3.1007  -3.0791  -3.0791  -3.0787  -3.0787  -3.0313  -3.0313
    -3.0115  -3.0115  -2.9076  -2.9076  -2.9074  -2.9074  -2.9005  -2.9005
    -2.9000  -2.9000  -2.8643  -2.8643  -2.8642  -2.8642  -2.4518  -2.4518
    -2.3941  -2.3941  -2.3939  -2.3939  -2.3292  -2.3292  -2.3216  -2.3216
    -1.7110  -1.7110  -1.6308  -1.6308  -1.5591  -1.5591  -1.4741  -1.4741
    -1.4738  -1.4738  -1.3618  -1.3618  -1.3616  -1.3616  -1.1801  -1.1801
    -1.1797  -1.1797   0.7125   0.7125   0.7258   0.7258   0.9546   0.9546
     0.9549   0.9549   0.9761   0.9761   0.9763   0.9763   0.9887   0.9887
     0.9889   0.9889   1.0536   1.0536   1.1492   1.1492   1.1496   1.1496
     1.1990   1.1990   1.2087   1.2087   1.2551   1.2551   1.2555   1.2555
     1.2566   1.2566   1.3298   1.3298   1.4178   1.4178   1.4182   1.4182

          k = 0.0000 0.5485 0.0000 ( 31558 PWs)   bands (ev):

   -56.5763 -56.5763 -56.5750 -56.5750 -56.5687 -56.5687 -56.5684 -56.5684
   -56.5679 -56.5679 -56.5636 -56.5636 -56.5627 -56.5627 -56.5620 -56.5620
   -56.5605 -56.5605 -34.0693 -34.0693 -34.0652 -34.0652 -34.0643 -34.0643
   -34.0533 -34.0533 -34.0520 -34.0520 -34.0321 -34.0321 -34.0262 -34.0262
   -34.0051 -34.0051 -34.0012 -34.0012 -32.0530 -32.0530 -32.0426 -32.0426
   -32.0414 -32.0414 -32.0236 -32.0236 -32.0219 -32.0219 -31.9829 -31.9829
   -31.9773 -31.9773 -31.9435 -31.9435 -31.9404 -31.9403 -31.9315 -31.9315
   -31.9297 -31.9297 -31.9284 -31.9284 -31.9271 -31.9271 -31.9218 -31.9218
   -31.9160 -31.9160 -31.9131 -31.9131 -31.8921 -31.8921 -31.8859 -31.8859
   -14.8396 -14.8396 -14.7858 -14.7857 -14.3436 -14.3436 -14.3332 -14.3332
   -14.0387 -14.0386 -14.0141 -14.0140 -13.8204 -13.8204 -13.8091 -13.8091
   -13.8082 -13.8082 -13.7973 -13.7973 -13.7869 -13.7869 -13.7804 -13.7804
   -13.7615 -13.7615 -13.5675 -13.5675 -13.5662 -13.5662 -13.5634 -13.5634
   -13.5505 -13.5505 -13.5491 -13.5491  -6.4970  -6.4970  -6.0783  -6.0783
    -6.0546  -6.0546  -6.0538  -6.0538  -6.0264  -6.0264  -6.0247  -6.0247
    -5.9605  -5.9605  -5.6208  -5.6208  -5.5908  -5.5908  -5.5760  -5.5760
    -5.5617  -5.5617  -5.5550  -5.5550  -5.5095  -5.5095  -5.4576  -5.4576
    -5.0502  -5.0502  -5.0250  -5.0250  -4.9124  -4.9124  -4.8565  -4.8565
    -4.8434  -4.8434  -4.8379  -4.8379  -4.8226  -4.8226  -4.5178  -4.5178
    -4.4364  -4.4364  -4.3178  -4.3177  -4.1790  -4.1789  -4.1408  -4.1408
    -4.1191  -4.1191  -4.0246  -4.0246  -4.0153  -4.0153  -3.9503  -3.9503
    -3.9106  -3.9106  -3.8994  -3.8994  -3.7988  -3.7986  -3.6831  -3.6828
    -3.6523  -3.6523  -3.6181  -3.6181  -3.4965  -3.4965  -3.4564  -3.4564
    -3.0994  -3.0993  -3.0980  -3.0980  -3.0557  -3.0555  -3.0289  -3.0289
    -3.0117  -3.0116  -2.9391  -2.9389  -2.9231  -2.9231  -2.8921  -2.8921
    -2.8818  -2.8818  -2.8625  -2.8624  -2.8473  -2.8473  -2.4538  -2.4538
    -2.4138  -2.4138  -2.3757  -2.3756  -2.3316  -2.3316  -2.3224  -2.3224
    -1.7126  -1.7126  -1.6285  -1.6285  -1.5569  -1.5569  -1.5004  -1.5004
    -1.4463  -1.4463  -1.3898  -1.3898  -1.3325  -1.3325  -1.2144  -1.2142
    -1.1461  -1.1459   0.7162   0.7162   0.7295   0.7295   0.9402   0.9404
     0.9607   0.9607   0.9748   0.9748   0.9756   0.9757   0.9888   0.9888
     0.9988   0.9988   1.0487   1.0487   1.1427   1.1427   1.1560   1.1560
     1.1998   1.1998   1.2096   1.2096   1.2377   1.2378   1.2597   1.2597
     1.2780   1.2781   1.3325   1.3325   1.3907   1.3907   1.4389   1.4389

          k = 0.0000 0.5196 0.0000 ( 31564 PWs)   bands (ev):

   -56.5772 -56.5772 -56.5760 -56.5760 -56.5692 -56.5692 -56.5688 -56.5688
   -56.5677 -56.5677 -56.5641 -56.5641 -56.5630 -56.5630 -56.5607 -56.5607
   -56.5594 -56.5594 -34.0677 -34.0677 -34.0644 -34.0644 -34.0635 -34.0635
   -34.0531 -34.0531 -34.0507 -34.0507 -34.0333 -34.0333 -34.0274 -34.0274
   -34.0091 -34.0091 -34.0005 -34.0005 -32.0512 -32.0512 -32.0421 -32.0421
   -32.0403 -32.0403 -32.0237 -32.0237 -32.0202 -32.0202 -31.9834 -31.9834
   -31.9778 -31.9778 -31.9471 -31.9471 -31.9398 -31.9398 -31.9317 -31.9317
   -31.9288 -31.9288 -31.9278 -31.9278 -31.9264 -31.9264 -31.9211 -31.9211
   -31.9177 -31.9177 -31.9149 -31.9149 -31.8966 -31.8966 -31.8841 -31.8841
   -14.8651 -14.8651 -14.7574 -14.7573 -14.3421 -14.3421 -14.3318 -14.3318
   -14.0504 -14.0503 -14.0011 -14.0010 -13.8377 -13.8377 -13.8159 -13.8159
   -13.8085 -13.8085 -13.8076 -13.8076 -13.7837 -13.7836 -13.7709 -13.7709
   -13.7443 -13.7443 -13.5762 -13.5762 -13.5749 -13.5749 -13.5648 -13.5648
   -13.5424 -13.5424 -13.5409 -13.5409  -6.4912  -6.4912  -6.0869  -6.0869
    -6.0657  -6.0657  -6.0583  -6.0582  -6.0378  -6.0378  -6.0057  -6.0057
    -5.9274  -5.9273  -5.6495  -5.6495  -5.5857  -5.5856  -5.5790  -5.5790
    -5.5583  -5.5583  -5.5350  -5.5350  -5.5315  -5.5315  -5.4316  -5.4316
    -5.0516  -5.0516  -5.0268  -5.0268  -4.9128  -4.9128  -4.8664  -4.8664
    -4.8543  -4.8543  -4.8290  -4.8290  -4.8127  -4.8127  -4.5262  -4.5262
    -4.4474  -4.4474  -4.3890  -4.3890  -4.1481  -4.1481  -4.1113  -4.1112
    -4.1046  -4.1046  -4.0261  -4.0261  -4.0072  -4.0072  -3.9395  -3.9395
    -3.9022  -3.9022  -3.8969  -3.8969  -3.8595  -3.8592  -3.7309  -3.7309
    -3.7002  -3.7002  -3.6276  -3.6273  -3.4204  -3.4204  -3.3779  -3.3779
    -3.1208  -3.1207  -3.0915  -3.0915  -3.0337  -3.0333  -3.0226  -3.0226
    -3.0106  -3.0105  -2.9776  -2.9772  -2.9399  -2.9399  -2.9008  -2.9008
    -2.8776  -2.8776  -2.8318  -2.8318  -2.8253  -2.8252  -2.4599  -2.4599
    -2.4347  -2.4347  -2.3588  -2.3588  -2.3387  -2.3387  -2.3238  -2.3238
    -1.7156  -1.7156  -1.6321  -1.6321  -1.5607  -1.5607  -1.5267  -1.5267
    -1.4178  -1.4178  -1.4176  -1.4176  -1.3024  -1.3024  -1.2533  -1.2531
    -1.1150  -1.1148   0.7185   0.7185   0.7316   0.7316   0.9255   0.9257
     0.9428   0.9428   0.9577   0.9577   0.9969   0.9970   0.9978   0.9979
     1.0044   1.0045   1.0497   1.0497   1.1390   1.1391   1.1589   1.1589
     1.1984   1.1984   1.2083   1.2083   1.2238   1.2239   1.2655   1.2655
     1.2985   1.2986   1.3374   1.3374   1.3666   1.3666   1.4370   1.4370

          k = 0.0000 0.4907 0.0000 ( 31562 PWs)   bands (ev):

   -56.5769 -56.5769 -56.5749 -56.5749 -56.5695 -56.5695 -56.5690 -56.5690
   -56.5671 -56.5671 -56.5644 -56.5644 -56.5633 -56.5633 -56.5611 -56.5611
   -56.5598 -56.5598 -34.0667 -34.0667 -34.0655 -34.0655 -34.0628 -34.0628
   -34.0529 -34.0529 -34.0518 -34.0518 -34.0340 -34.0340 -34.0281 -34.0281
   -34.0091 -34.0091 -33.9986 -33.9986 -32.0495 -32.0495 -32.0441 -32.0441
   -32.0389 -32.0389 -32.0234 -32.0234 -32.0209 -32.0209 -31.9843 -31.9843
   -31.9788 -31.9788 -31.9477 -31.9477 -31.9389 -31.9389 -31.9341 -31.9341
   -31.9299 -31.9299 -31.9271 -31.9271 -31.9258 -31.9258 -31.9201 -31.9201
   -31.9179 -31.9179 -31.9152 -31.9152 -31.8975 -31.8975 -31.8803 -31.8803
   -14.8894 -14.8893 -14.7280 -14.7279 -14.3397 -14.3397 -14.3295 -14.3295
   -14.0616 -14.0615 -13.9876 -13.9876 -13.8555 -13.8555 -13.8349 -13.8349
   -13.8074 -13.8074 -13.8066 -13.8066 -13.7891 -13.7891 -13.7556 -13.7556
   -13.7278 -13.7278 -13.5851 -13.5851 -13.5838 -13.5838 -13.5671 -13.5671
   -13.5345 -13.5345 -13.5330 -13.5330  -6.4823  -6.4823  -6.0930  -6.0930
    -6.0892  -6.0892  -6.0741  -6.0741  -6.0198  -6.0198  -5.9845  -5.9845
    -5.8938  -5.8937  -5.6777  -5.6777  -5.5836  -5.5836  -5.5770  -5.5770
    -5.5636  -5.5636  -5.5604  -5.5604  -5.5010  -5.5010  -5.4055  -5.4055
    -5.0541  -5.0541  -5.0299  -5.0299  -4.9136  -4.9136  -4.8766  -4.8766
    -4.8655  -4.8655  -4.8213  -4.8213  -4.8041  -4.8041  -4.5386  -4.5386
    -4.4639  -4.4639  -4.4585  -4.4585  -4.1542  -4.1542  -4.0876  -4.0876
    -4.0434  -4.0432  -4.0266  -4.0266  -3.9968  -3.9968  -3.9225  -3.9225
    -3.9195  -3.9193  -3.8928  -3.8928  -3.8891  -3.8891  -3.8102  -3.8102
    -3.7832  -3.7832  -3.5734  -3.5732  -3.3462  -3.3462  -3.3018  -3.3018
    -3.1407  -3.1406  -3.0805  -3.0805  -3.0207  -3.0193  -3.0122  -3.0122
    -3.0085  -3.0085  -3.0054  -3.0040  -2.9576  -2.9576  -2.9211  -2.9211
    -2.8637  -2.8637  -2.8173  -2.8173  -2.7889  -2.7888  -2.4695  -2.4695
    -2.4562  -2.4562  -2.3502  -2.3502  -2.3439  -2.3438  -2.3262  -2.3262
    -1.7205  -1.7205  -1.6366  -1.6366  -1.5656  -1.5656  -1.5526  -1.5526
    -1.4453  -1.4453  -1.3908  -1.3908  -1.2909  -1.2907  -1.2739  -1.2739
    -1.0853  -1.0852   0.7235   0.7235   0.7364   0.7364   0.9170   0.9172
     0.9200   0.9200   0.9351   0.9351   1.0029   1.0029   1.0056   1.0056
     1.0232   1.0234   1.0486   1.0486   1.1394   1.1394   1.1591   1.1591
     1.1953   1.1953   1.2057   1.2057   1.2248   1.2250   1.2783   1.2783
     1.3210   1.3211   1.3459   1.3459   1.3485   1.3485   1.4097   1.4097

          k = 0.0000 0.4619 0.0000 ( 31604 PWs)   bands (ev):

   -56.5780 -56.5780 -56.5739 -56.5739 -56.5712 -56.5712 -56.5706 -56.5706
   -56.5672 -56.5672 -56.5663 -56.5663 -56.5648 -56.5648 -56.5607 -56.5607
   -56.5595 -56.5595 -34.0669 -34.0669 -34.0651 -34.0651 -34.0641 -34.0641
   -34.0547 -34.0547 -34.0521 -34.0521 -34.0368 -34.0368 -34.0311 -34.0311
   -34.0098 -34.0098 -33.9985 -33.9985 -32.0480 -32.0480 -32.0445 -32.0445
   -32.0392 -32.0392 -32.0246 -32.0246 -32.0202 -32.0202 -31.9868 -31.9868
   -31.9813 -31.9813 -31.9489 -31.9489 -31.9394 -31.9394 -31.9355 -31.9355
   -31.9309 -31.9309 -31.9287 -31.9287 -31.9274 -31.9274 -31.9204 -31.9204
   -31.9200 -31.9200 -31.9178 -31.9178 -31.8988 -31.8988 -31.8784 -31.8784
   -14.9126 -14.9126 -14.6979 -14.6978 -14.3364 -14.3364 -14.3264 -14.3264
   -14.0723 -14.0722 -13.9739 -13.9738 -13.8734 -13.8734 -13.8541 -13.8541
   -13.8061 -13.8061 -13.8053 -13.8053 -13.7969 -13.7968 -13.7408 -13.7408
   -13.7119 -13.7119 -13.5940 -13.5940 -13.5928 -13.5928 -13.5705 -13.5705
   -13.5269 -13.5269 -13.5254 -13.5254  -6.4697  -6.4696  -6.1191  -6.1191
    -6.0970  -6.0970  -6.0803  -6.0803  -5.9992  -5.9992  -5.9605  -5.9605
    -5.8605  -5.8604  -5.7050  -5.7050  -5.5908  -5.5908  -5.5852  -5.5852
    -5.5717  -5.5717  -5.5655  -5.5654  -5.4703  -5.4703  -5.3795  -5.3795
    -5.0575  -5.0575  -5.0342  -5.0342  -4.9148  -4.9148  -4.8875  -4.8875
    -4.8775  -4.8775  -4.8135  -4.8135  -4.7954  -4.7954  -4.5556  -4.5556
    -4.5273  -4.5273  -4.4857  -4.4857  -4.1585  -4.1585  -4.0693  -4.0693
    -4.0260  -4.0260  -3.9853  -3.9853  -3.9808  -3.9806  -3.9782  -3.9781
    -3.9012  -3.9012  -3.8885  -3.8885  -3.8876  -3.8876  -3.8722  -3.8722
    -3.8661  -3.8661  -3.5221  -3.5218  -3.2753  -3.2753  -3.2296  -3.2296
    -3.1590  -3.1589  -3.0656  -3.0656  -3.0573  -3.0571  -3.0065  -3.0065
    -2.9981  -2.9981  -2.9819  -2.9816  -2.9756  -2.9756  -2.9420  -2.9420
    -2.8499  -2.8499  -2.8038  -2.8038  -2.7536  -2.7535  -2.4830  -2.4830
    -2.4782  -2.4781  -2.3662  -2.3662  -2.3314  -2.3314  -2.3298  -2.3298
    -1.7274  -1.7274  -1.6450  -1.6450  -1.5806  -1.5806  -1.5745  -1.5745
    -1.4752  -1.4752  -1.3613  -1.3613  -1.3288  -1.3287  -1.2428  -1.2428
    -1.0585  -1.0583   0.7281   0.7281   0.7408   0.7408   0.8939   0.8939
     0.9086   0.9086   0.9115   0.9117   0.9984   0.9984   1.0006   1.0006
     1.0455   1.0455   1.0504   1.0506   1.1400   1.1400   1.1506   1.1507
     1.1914   1.1914   1.2021   1.2021   1.2388   1.2389   1.2938   1.2938
     1.3281   1.3281   1.3430   1.3431   1.3618   1.3618   1.3835   1.3835

          k = 0.0000 0.4330 0.0000 ( 31576 PWs)   bands (ev):

   -56.5783 -56.5783 -56.5739 -56.5739 -56.5700 -56.5700 -56.5695 -56.5695
   -56.5664 -56.5664 -56.5653 -56.5653 -56.5639 -56.5639 -56.5611 -56.5611
   -56.5598 -56.5598 -34.0684 -34.0684 -34.0633 -34.0633 -34.0613 -34.0613
   -34.0537 -34.0537 -34.0519 -34.0519 -34.0353 -34.0353 -34.0297 -34.0297
   -34.0122 -34.0122 -33.9972 -33.9972 -32.0466 -32.0466 -32.0456 -32.0456
   -32.0363 -32.0363 -32.0229 -32.0229 -32.0209 -32.0209 -31.9861 -31.9861
   -31.9807 -31.9807 -31.9514 -31.9514 -31.9396 -31.9396 -31.9377 -31.9377
   -31.9325 -31.9325 -31.9255 -31.9255 -31.9246 -31.9246 -31.9191 -31.9191
   -31.9185 -31.9185 -31.9160 -31.9160 -31.9018 -31.9018 -31.8747 -31.8747
   -14.9345 -14.9345 -14.6670 -14.6669 -14.3320 -14.3320 -14.3222 -14.3222
   -14.0824 -14.0824 -13.9598 -13.9597 -13.8916 -13.8916 -13.8736 -13.8736
   -13.8068 -13.8067 -13.8042 -13.8042 -13.8035 -13.8035 -13.7268 -13.7268
   -13.6969 -13.6969 -13.6030 -13.6030 -13.6018 -13.6018 -13.5749 -13.5748
   -13.5197 -13.5197 -13.5181 -13.5181  -6.4536  -6.4535  -6.1478  -6.1478
    -6.0983  -6.0983  -6.0836  -6.0836  -5.9765  -5.9765  -5.9340  -5.9340
    -5.8283  -5.8282  -5.7314  -5.7314  -5.6095  -5.6095  -5.5985  -5.5985
    -5.5806  -5.5806  -5.5506  -5.5505  -5.4391  -5.4391  -5.3534  -5.3534
    -5.0608  -5.0608  -5.0385  -5.0385  -4.9160  -4.9160  -4.8975  -4.8975
    -4.8885  -4.8885  -4.8070  -4.8070  -4.7882  -4.7882  -4.5959  -4.5959
    -4.5749  -4.5749  -4.5102  -4.5102  -4.1620  -4.1620  -4.0471  -4.0471
    -4.0429  -4.0427  -4.0272  -4.0272  -3.9701  -3.9701  -3.9636  -3.9636
    -3.9487  -3.9486  -3.9140  -3.9138  -3.8808  -3.8808  -3.8750  -3.8750
    -3.8508  -3.8508  -3.4724  -3.4722  -3.2061  -3.2061  -3.1746  -3.1745
    -3.1601  -3.1601  -3.0970  -3.0969  -3.0463  -3.0463  -3.0039  -3.0039
    -2.9943  -2.9943  -2.9800  -2.9800  -2.9637  -2.9637  -2.9581  -2.9579
    -2.8356  -2.8356  -2.7909  -2.7909  -2.7211  -2.7210  -2.5004  -2.5003
    -2.4992  -2.4992  -2.3856  -2.3856  -2.3343  -2.3343  -2.3211  -2.3211
    -1.7341  -1.7341  -1.6503  -1.6503  -1.6040  -1.6040  -1.5806  -1.5806
    -1.5008  -1.5008  -1.3704  -1.3702  -1.3326  -1.3326  -1.2123  -1.2123
    -1.0318  -1.0316   0.7395   0.7395   0.7519   0.7519   0.8650   0.8650
     0.8788   0.8788   0.9075   0.9077   0.9932   0.9932   0.9998   0.9998
     1.0424   1.0424   1.0818   1.0819   1.1348   1.1348   1.1460   1.1460
     1.1887   1.1887   1.1997   1.1997   1.2603   1.2604   1.3162   1.3162
     1.3176   1.3176   1.3635   1.3635   1.3668   1.3669   1.3830   1.3830

          k = 0.0000 0.4041 0.0000 ( 31581 PWs)   bands (ev):

   -56.5785 -56.5785 -56.5736 -56.5736 -56.5700 -56.5700 -56.5695 -56.5695
   -56.5672 -56.5672 -56.5661 -56.5661 -56.5646 -56.5646 -56.5603 -56.5603
   -56.5591 -56.5591 -34.0683 -34.0683 -34.0639 -34.0639 -34.0610 -34.0610
   -34.0533 -34.0533 -34.0521 -34.0521 -34.0356 -34.0356 -34.0302 -34.0302
   -34.0143 -34.0143 -33.9959 -33.9959 -32.0464 -32.0464 -32.0453 -32.0453
   -32.0351 -32.0351 -32.0229 -32.0229 -32.0197 -32.0197 -31.9870 -31.9870
   -31.9818 -31.9818 -31.9547 -31.9547 -31.9390 -31.9390 -31.9383 -31.9383
   -31.9332 -31.9332 -31.9253 -31.9253 -31.9247 -31.9247 -31.9200 -31.9200
   -31.9183 -31.9183 -31.9158 -31.9158 -31.9033 -31.9033 -31.8725 -31.8725
   -14.9553 -14.9552 -14.6353 -14.6352 -14.3266 -14.3266 -14.3172 -14.3172
   -14.0919 -14.0919 -13.9454 -13.9453 -13.9101 -13.9101 -13.8935 -13.8935
   -13.8189 -13.8188 -13.8020 -13.8020 -13.8012 -13.8012 -13.7134 -13.7134
   -13.6824 -13.6824 -13.6121 -13.6121 -13.6110 -13.6110 -13.5801 -13.5800
   -13.5127 -13.5127 -13.5111 -13.5111  -6.4346  -6.4346  -6.1746  -6.1746
    -6.0976  -6.0976  -6.0848  -6.0848  -5.9514  -5.9514  -5.9048  -5.9048
    -5.7967  -5.7966  -5.7563  -5.7563  -5.6327  -5.6327  -5.6089  -5.6089
    -5.5923  -5.5923  -5.5329  -5.5328  -5.4084  -5.4084  -5.3279  -5.3279
    -5.0648  -5.0648  -5.0437  -5.0437  -4.9185  -4.9185  -4.9085  -4.9085
    -4.9004  -4.9004  -4.8005  -4.8005  -4.7811  -4.7811  -4.6638  -4.6637
    -4.5969  -4.5969  -4.5375  -4.5375  -4.1643  -4.1643  -4.1059  -4.1057
    -4.0580  -4.0580  -4.0296  -4.0296  -4.0233  -4.0233  -4.0060  -4.0060
    -3.9533  -3.9533  -3.8729  -3.8728  -3.8524  -3.8523  -3.8465  -3.8465
    -3.8269  -3.8269  -3.4256  -3.4254  -3.1889  -3.1888  -3.1411  -3.1411
    -3.1352  -3.1351  -3.0964  -3.0964  -3.0240  -3.0240  -3.0130  -3.0130
    -3.0010  -3.0010  -2.9858  -2.9858  -2.9592  -2.9592  -2.9347  -2.9346
    -2.8206  -2.8206  -2.7789  -2.7789  -2.6886  -2.6885  -2.5221  -2.5220
    -2.5182  -2.5182  -2.4087  -2.4087  -2.3399  -2.3399  -2.3125  -2.3125
    -1.7449  -1.7449  -1.6593  -1.6593  -1.6296  -1.6296  -1.5905  -1.5905
    -1.5287  -1.5287  -1.4105  -1.4103  -1.3022  -1.3022  -1.1802  -1.1802
    -1.0082  -1.0081   0.7513   0.7513   0.7634   0.7634   0.8349   0.8349
     0.8474   0.8474   0.9060   0.9062   0.9837   0.9837   0.9936   0.9936
     1.0372   1.0372   1.1135   1.1136   1.1183   1.1183   1.1575   1.1575
     1.1834   1.1834   1.1945   1.1945   1.2860   1.2861   1.3026   1.3026
     1.3429   1.3429   1.3446   1.3446   1.3878   1.3879   1.3996   1.3996

          k = 0.0000 0.3753 0.0000 ( 31589 PWs)   bands (ev):

   -56.5791 -56.5791 -56.5725 -56.5725 -56.5697 -56.5697 -56.5693 -56.5693
   -56.5674 -56.5674 -56.5666 -56.5666 -56.5650 -56.5650 -56.5610 -56.5610
   -56.5598 -56.5598 -34.0703 -34.0703 -34.0632 -34.0632 -34.0602 -34.0602
   -34.0548 -34.0548 -34.0522 -34.0522 -34.0354 -34.0354 -34.0302 -34.0302
   -34.0150 -34.0150 -33.9951 -33.9951 -32.0483 -32.0483 -32.0441 -32.0441
   -32.0340 -32.0340 -32.0228 -32.0228 -32.0205 -32.0205 -31.9877 -31.9877
   -31.9826 -31.9826 -31.9553 -31.9553 -31.9416 -31.9416 -31.9384 -31.9384
   -31.9352 -31.9352 -31.9244 -31.9244 -31.9239 -31.9239 -31.9199 -31.9199
   -31.9176 -31.9176 -31.9153 -31.9153 -31.9054 -31.9054 -31.8700 -31.8700
   -14.9748 -14.9747 -14.6030 -14.6029 -14.3203 -14.3203 -14.3112 -14.3112
   -14.1009 -14.1009 -13.9306 -13.9305 -13.9288 -13.9288 -13.9134 -13.9134
   -13.8330 -13.8329 -13.7993 -13.7993 -13.7986 -13.7986 -13.7008 -13.7008
   -13.6689 -13.6689 -13.6212 -13.6212 -13.6202 -13.6202 -13.5863 -13.5862
   -13.5061 -13.5061 -13.5045 -13.5045  -6.4121  -6.4120  -6.2003  -6.2003
    -6.0949  -6.0949  -6.0839  -6.0839  -5.9246  -5.9246  -5.8733  -5.8733
    -5.7801  -5.7801  -5.7665  -5.7664  -5.6552  -5.6552  -5.6210  -5.6210
    -5.6058  -5.6058  -5.5117  -5.5116  -5.3775  -5.3775  -5.3025  -5.3025
    -5.0686  -5.0686  -5.0489  -5.0489  -4.9217  -4.9217  -4.9194  -4.9194
    -4.9122  -4.9122  -4.7959  -4.7959  -4.7760  -4.7760  -4.7290  -4.7289
    -4.6208  -4.6208  -4.5665  -4.5665  -4.1703  -4.1703  -4.1686  -4.1684
    -4.1291  -4.1291  -4.1052  -4.1052  -4.0062  -4.0062  -3.9972  -3.9972
    -3.9343  -3.9343  -3.8633  -3.8633  -3.8166  -3.8166  -3.8014  -3.8014
    -3.7941  -3.7939  -3.3835  -3.3833  -3.1973  -3.1971  -3.1736  -3.1736
    -3.0809  -3.0809  -3.0398  -3.0398  -3.0320  -3.0320  -3.0083  -3.0083
    -2.9989  -2.9989  -2.9973  -2.9972  -2.9360  -2.9360  -2.9115  -2.9114
    -2.8028  -2.8028  -2.7665  -2.7665  -2.6586  -2.6585  -2.5429  -2.5429
    -2.5392  -2.5392  -2.4345  -2.4345  -2.3465  -2.3465  -2.3065  -2.3065
    -1.7560  -1.7559  -1.6692  -1.6692  -1.6548  -1.6548  -1.6016  -1.6016
    -1.5565  -1.5565  -1.4513  -1.4512  -1.2735  -1.2735  -1.1495  -1.1495
    -0.9875  -0.9873   0.7660   0.7660   0.7776   0.7776   0.8021   0.8021
     0.8129   0.8129   0.9090   0.9091   0.9746   0.9746   0.9876   0.9876
     1.0321   1.0321   1.1033   1.1033   1.1438   1.1439   1.1727   1.1728
     1.1782   1.1782   1.1894   1.1894   1.2917   1.2917   1.3185   1.3186
     1.3253   1.3253   1.3757   1.3757   1.3843   1.3843   1.4103   1.4104

          k = 0.0000 0.3464 0.0000 ( 31569 PWs)   bands (ev):

   -56.5787 -56.5787 -56.5720 -56.5720 -56.5702 -56.5702 -56.5697 -56.5697
   -56.5669 -56.5669 -56.5666 -56.5666 -56.5647 -56.5647 -56.5600 -56.5600
   -56.5588 -56.5588 -34.0697 -34.0697 -34.0611 -34.0611 -34.0585 -34.0585
   -34.0537 -34.0537 -34.0510 -34.0510 -34.0367 -34.0367 -34.0317 -34.0317
   -34.0167 -34.0167 -33.9931 -33.9931 -32.0476 -32.0476 -32.0418 -32.0418
   -32.0315 -32.0315 -32.0214 -32.0214 -32.0188 -32.0188 -31.9892 -31.9892
   -31.9843 -31.9843 -31.9585 -31.9585 -31.9422 -31.9422 -31.9374 -31.9374
   -31.9353 -31.9353 -31.9232 -31.9232 -31.9229 -31.9229 -31.9185 -31.9185
   -31.9181 -31.9181 -31.9162 -31.9162 -31.9064 -31.9064 -31.8666 -31.8666
   -14.9929 -14.9928 -14.5702 -14.5700 -14.3131 -14.3131 -14.3044 -14.3044
   -14.1092 -14.1092 -13.9475 -13.9475 -13.9334 -13.9334 -13.9156 -13.9155
   -13.8490 -13.8489 -13.7962 -13.7962 -13.7955 -13.7955 -13.6888 -13.6888
   -13.6560 -13.6560 -13.6303 -13.6303 -13.6294 -13.6294 -13.5932 -13.5931
   -13.4999 -13.4999 -13.4982 -13.4982  -6.3864  -6.3864  -6.2243  -6.2242
    -6.0897  -6.0897  -6.0804  -6.0804  -5.8958  -5.8958  -5.8388  -5.8388
    -5.8014  -5.8014  -5.7389  -5.7387  -5.6761  -5.6761  -5.6349  -5.6349
    -5.6214  -5.6214  -5.4873  -5.4872  -5.3469  -5.3469  -5.2776  -5.2776
    -5.0723  -5.0723  -5.0542  -5.0542  -4.9299  -4.9299  -4.9254  -4.9254
    -4.9236  -4.9236  -4.7921  -4.7920  -4.7915  -4.7915  -4.7714  -4.7714
    -4.6464  -4.6464  -4.5970  -4.5970  -4.2327  -4.2325  -4.2083  -4.2083
    -4.2027  -4.2027  -4.1458  -4.1458  -4.0005  -4.0005  -3.9686  -3.9686
    -3.9127  -3.9127  -3.8515  -3.8515  -3.7865  -3.7865  -3.7752  -3.7752
    -3.7381  -3.7379  -3.3487  -3.3486  -3.2117  -3.2117  -3.1983  -3.1981
    -3.0503  -3.0503  -3.0304  -3.0304  -3.0264  -3.0264  -2.9926  -2.9926
    -2.9924  -2.9924  -2.9719  -2.9719  -2.9116  -2.9116  -2.8891  -2.8890
    -2.7804  -2.7804  -2.7530  -2.7530  -2.6294  -2.6293  -2.5623  -2.5622
    -2.5615  -2.5615  -2.4625  -2.4625  -2.3540  -2.3539  -2.3026  -2.3026
    -1.7670  -1.7670  -1.6813  -1.6813  -1.6789  -1.6789  -1.6150  -1.6150
    -1.5836  -1.5836  -1.4907  -1.4905  -1.2424  -1.2424  -1.1164  -1.1164
    -0.9676  -0.9674   0.7698   0.7698   0.7787   0.7787   0.7809   0.7809
     0.7921   0.7921   0.9127   0.9128   0.9677   0.9677   0.9829   0.9829
     1.0278   1.0278   1.0903   1.0903   1.1699   1.1699   1.1711   1.1711
     1.1820   1.1820   1.1974   1.1976   1.2808   1.2808   1.3084   1.3084
     1.3502   1.3503   1.3688   1.3688   1.4085   1.4085   1.4326   1.4328

          k = 0.0000 0.3175 0.0000 ( 31543 PWs)   bands (ev):

   -56.5781 -56.5781 -56.5716 -56.5716 -56.5692 -56.5692 -56.5688 -56.5688
   -56.5668 -56.5668 -56.5665 -56.5665 -56.5646 -56.5646 -56.5599 -56.5599
   -56.5587 -56.5587 -34.0703 -34.0703 -34.0598 -34.0598 -34.0568 -34.0568
   -34.0539 -34.0539 -34.0500 -34.0500 -34.0355 -34.0355 -34.0308 -34.0308
   -34.0188 -34.0188 -33.9907 -33.9907 -32.0480 -32.0480 -32.0399 -32.0399
   -32.0293 -32.0293 -32.0202 -32.0202 -32.0181 -32.0181 -31.9891 -31.9891
   -31.9845 -31.9845 -31.9626 -31.9626 -31.9439 -31.9439 -31.9367 -31.9367
   -31.9357 -31.9357 -31.9219 -31.9219 -31.9215 -31.9215 -31.9176 -31.9176
   -31.9167 -31.9167 -31.9146 -31.9146 -31.9071 -31.9071 -31.8631 -31.8631
   -15.0097 -15.0096 -14.5368 -14.5367 -14.3049 -14.3049 -14.2967 -14.2967
   -14.1169 -14.1169 -13.9662 -13.9662 -13.9534 -13.9534 -13.9004 -13.9003
   -13.8670 -13.8669 -13.7928 -13.7928 -13.7921 -13.7921 -13.6777 -13.6777
   -13.6441 -13.6441 -13.6393 -13.6393 -13.6385 -13.6385 -13.6010 -13.6009
   -13.4940 -13.4940 -13.4924 -13.4924  -6.3580  -6.3579  -6.2466  -6.2466
    -6.0825  -6.0825  -6.0747  -6.0747  -5.8679  -5.8679  -5.8190  -5.8190
    -5.8021  -5.8021  -5.7142  -5.7140  -5.6959  -5.6959  -5.6501  -5.6501
    -5.6382  -5.6382  -5.4601  -5.4600  -5.3166  -5.3166  -5.2531  -5.2531
    -5.0755  -5.0755  -5.0589  -5.0589  -4.9404  -4.9404  -4.9349  -4.9349
    -4.9299  -4.9299  -4.8516  -4.8515  -4.7888  -4.7888  -4.7687  -4.7687
    -4.6728  -4.6728  -4.6281  -4.6281  -4.2970  -4.2968  -4.2800  -4.2800
    -4.2748  -4.2747  -4.1501  -4.1501  -3.9931  -3.9931  -3.9379  -3.9379
    -3.8891  -3.8891  -3.8388  -3.8388  -3.7558  -3.7558  -3.7479  -3.7479
    -3.6849  -3.6847  -3.3251  -3.3249  -3.2492  -3.2492  -3.1881  -3.1879
    -3.0685  -3.0685  -3.0526  -3.0526  -2.9872  -2.9872  -2.9799  -2.9799
    -2.9571  -2.9571  -2.9427  -2.9427  -2.8860  -2.8860  -2.8702  -2.8701
    -2.7516  -2.7516  -2.7368  -2.7368  -2.6028  -2.6027  -2.5837  -2.5837
    -2.5798  -2.5798  -2.4918  -2.4918  -2.3625  -2.3624  -2.2997  -2.2996
    -1.7787  -1.7787  -1.7024  -1.7024  -1.6918  -1.6918  -1.6273  -1.6273
    -1.6104  -1.6104  -1.5281  -1.5280  -1.2122  -1.2122  -1.0841  -1.0841
    -0.9506  -0.9505   0.7349   0.7349   0.7416   0.7416   0.8005   0.8005
     0.8113   0.8113   0.9200   0.9202   0.9597   0.9597   0.9762   0.9762
     1.0249   1.0249   1.0737   1.0738   1.1646   1.1646   1.1752   1.1752
     1.1920   1.1920   1.2311   1.2313   1.2708   1.2708   1.2932   1.2932
     1.3490   1.3490   1.3839   1.3840   1.4449   1.4449   1.4536   1.4537

          k = 0.0000 0.2887 0.0000 ( 31525 PWs)   bands (ev):

   -56.5770 -56.5770 -56.5717 -56.5717 -56.5693 -56.5693 -56.5690 -56.5690
   -56.5669 -56.5669 -56.5664 -56.5664 -56.5643 -56.5643 -56.5591 -56.5591
   -56.5579 -56.5579 -34.0698 -34.0698 -34.0571 -34.0571 -34.0556 -34.0556
   -34.0530 -34.0530 -34.0495 -34.0495 -34.0363 -34.0363 -34.0319 -34.0319
   -34.0218 -34.0218 -33.9875 -33.9875 -32.0474 -32.0474 -32.0357 -32.0357
   -32.0276 -32.0276 -32.0194 -32.0194 -32.0166 -32.0166 -31.9909 -31.9909
   -31.9865 -31.9865 -31.9668 -31.9667 -31.9446 -31.9446 -31.9368 -31.9368
   -31.9334 -31.9334 -31.9212 -31.9212 -31.9208 -31.9208 -31.9170 -31.9170
   -31.9164 -31.9164 -31.9146 -31.9146 -31.9094 -31.9094 -31.8593 -31.8593
   -15.0249 -15.0249 -14.5030 -14.5029 -14.2959 -14.2959 -14.2882 -14.2882
   -14.1239 -14.1239 -13.9851 -13.9851 -13.9736 -13.9736 -13.8866 -13.8864
   -13.8850 -13.8849 -13.7890 -13.7890 -13.7883 -13.7883 -13.6674 -13.6674
   -13.6484 -13.6484 -13.6476 -13.6476 -13.6330 -13.6330 -13.6095 -13.6094
   -13.4886 -13.4886 -13.4869 -13.4869  -6.3258  -6.3257  -6.2667  -6.2667
    -6.0733  -6.0733  -6.0669  -6.0669  -5.8559  -5.8559  -5.8169  -5.8169
    -5.7632  -5.7632  -5.7142  -5.7142  -5.6940  -5.6938  -5.6678  -5.6678
    -5.6575  -5.6575  -5.4295  -5.4294  -5.2868  -5.2868  -5.2292  -5.2292
    -5.0784  -5.0784  -5.0634  -5.0634  -4.9506  -4.9506  -4.9459  -4.9459
    -4.9350  -4.9350  -4.9070  -4.9068  -4.7877  -4.7877  -4.7678  -4.7678
    -4.7000  -4.7000  -4.6599  -4.6599  -4.3612  -4.3611  -4.3541  -4.3541
    -4.3435  -4.3435  -4.1484  -4.1484  -3.9848  -3.9848  -3.9061  -3.9061
    -3.8642  -3.8642  -3.8248  -3.8248  -3.7261  -3.7261  -3.7211  -3.7211
    -3.6351  -3.6349  -3.3139  -3.3138  -3.2865  -3.2865  -3.1652  -3.1649
    -3.0860  -3.0860  -3.0741  -3.0741  -2.9810  -2.9809  -2.9426  -2.9426
    -2.9329  -2.9329  -2.9136  -2.9136  -2.8619  -2.8619  -2.8539  -2.8538
    -2.7171  -2.7170  -2.7158  -2.7158  -2.6043  -2.6043  -2.5946  -2.5945
    -2.5791  -2.5791  -2.5213  -2.5213  -2.3719  -2.3719  -2.2985  -2.2985
    -1.7904  -1.7903  -1.7259  -1.7259  -1.7053  -1.7053  -1.6430  -1.6430
    -1.6378  -1.6378  -1.5666  -1.5665  -1.1814  -1.1814  -1.0510  -1.0510
    -0.9336  -0.9334   0.7020   0.7020   0.7062   0.7062   0.8181   0.8181
     0.8283   0.8283   0.9287   0.9288   0.9534   0.9534   0.9704   0.9704
     1.0207   1.0207   1.0573   1.0573   1.1567   1.1567   1.1669   1.1669
     1.2131   1.2132   1.2592   1.2592   1.2675   1.2677   1.2774   1.2774
     1.3318   1.3318   1.4203   1.4203   1.4732   1.4734   1.4821   1.4821

          k = 0.0000 0.2598 0.0000 ( 31577 PWs)   bands (ev):

   -56.5778 -56.5778 -56.5717 -56.5717 -56.5701 -56.5701 -56.5698 -56.5698
   -56.5679 -56.5679 -56.5679 -56.5679 -56.5658 -56.5658 -56.5596 -56.5596
   -56.5585 -56.5585 -34.0713 -34.0713 -34.0587 -34.0587 -34.0558 -34.0558
   -34.0542 -34.0542 -34.0502 -34.0502 -34.0381 -34.0381 -34.0340 -34.0340
   -34.0243 -34.0243 -33.9876 -33.9876 -32.0484 -32.0484 -32.0355 -32.0355
   -32.0268 -32.0268 -32.0196 -32.0196 -32.0164 -32.0164 -31.9931 -31.9931
   -31.9890 -31.9890 -31.9705 -31.9705 -31.9476 -31.9476 -31.9390 -31.9390
   -31.9336 -31.9336 -31.9215 -31.9215 -31.9211 -31.9211 -31.9195 -31.9195
   -31.9175 -31.9175 -31.9159 -31.9159 -31.9111 -31.9111 -31.8584 -31.8584
   -15.0391 -15.0390 -14.4689 -14.4688 -14.2861 -14.2861 -14.2789 -14.2789
   -14.1304 -14.1303 -14.0039 -14.0039 -13.9936 -13.9936 -13.9081 -13.9080
   -13.8695 -13.8694 -13.7848 -13.7848 -13.7842 -13.7842 -13.6580 -13.6580
   -13.6575 -13.6575 -13.6567 -13.6567 -13.6229 -13.6229 -13.6190 -13.6188
   -13.4837 -13.4837 -13.4820 -13.4820  -6.2915  -6.2914  -6.2857  -6.2856
    -6.0623  -6.0623  -6.0572  -6.0572  -5.8680  -5.8680  -5.7885  -5.7885
    -5.7332  -5.7331  -5.7206  -5.7206  -5.6868  -5.6868  -5.6791  -5.6789
    -5.6782  -5.6782  -5.3968  -5.3966  -5.2575  -5.2575  -5.2058  -5.2058
    -5.0806  -5.0806  -5.0672  -5.0672  -4.9606  -4.9606  -4.9567  -4.9566
    -4.9566  -4.9564  -4.9421  -4.9420  -4.7906  -4.7906  -4.7714  -4.7714
    -4.7276  -4.7276  -4.6918  -4.6918  -4.4255  -4.4255  -4.4254  -4.4253
    -4.4079  -4.4079  -4.1449  -4.1449  -3.9757  -3.9757  -3.8734  -3.8734
    -3.8382  -3.8382  -3.8105  -3.8105  -3.6984  -3.6984  -3.6957  -3.6957
    -3.5906  -3.5904  -3.3242  -3.3242  -3.3132  -3.3131  -3.1353  -3.1350
    -3.1032  -3.1032  -3.0954  -3.0954  -2.9749  -2.9749  -2.9184  -2.9184
    -2.9157  -2.9157  -2.8855  -2.8855  -2.8417  -2.8417  -2.8408  -2.8406
    -2.6912  -2.6912  -2.6781  -2.6781  -2.6210  -2.6210  -2.6057  -2.6056
    -2.5586  -2.5585  -2.5497  -2.5497  -2.3833  -2.3833  -2.2985  -2.2985
    -1.8038  -1.8038  -1.7492  -1.7492  -1.7204  -1.7204  -1.6656  -1.6656
    -1.6606  -1.6606  -1.6016  -1.6015  -1.1544  -1.1544  -1.0216  -1.0216
    -0.9215  -0.9214   0.6669   0.6669   0.6686   0.6686   0.8354   0.8354
     0.8450   0.8450   0.9414   0.9415   0.9473   0.9473   0.9642   0.9642
     1.0093   1.0093   1.0433   1.0434   1.1477   1.1477   1.1571   1.1571
     1.2307   1.2308   1.2462   1.2462   1.2605   1.2605   1.3022   1.3024
     1.3107   1.3107   1.4572   1.4573   1.4876   1.4878   1.5200   1.5200

          k = 0.0000 0.2309 0.0000 ( 31589 PWs)   bands (ev):

   -56.5774 -56.5774 -56.5715 -56.5715 -56.5696 -56.5696 -56.5692 -56.5692
   -56.5691 -56.5691 -56.5690 -56.5690 -56.5665 -56.5665 -56.5598 -56.5598
   -56.5586 -56.5586 -34.0722 -34.0722 -34.0598 -34.0598 -34.0559 -34.0559
   -34.0548 -34.0548 -34.0509 -34.0509 -34.0371 -34.0371 -34.0334 -34.0334
   -34.0268 -34.0268 -33.9860 -33.9860 -32.0493 -32.0493 -32.0349 -32.0349
   -32.0259 -32.0259 -32.0196 -32.0196 -32.0165 -32.0165 -31.9936 -31.9936
   -31.9898 -31.9898 -31.9749 -31.9749 -31.9490 -31.9490 -31.9398 -31.9398
   -31.9330 -31.9330 -31.9221 -31.9221 -31.9217 -31.9217 -31.9211 -31.9211
   -31.9157 -31.9157 -31.9142 -31.9142 -31.9122 -31.9122 -31.8555 -31.8555
   -15.0517 -15.0516 -14.4346 -14.4344 -14.2753 -14.2753 -14.2687 -14.2687
   -14.1362 -14.1362 -14.0226 -14.0226 -14.0136 -14.0136 -13.9313 -13.9312
   -13.8539 -13.8538 -13.7801 -13.7801 -13.7796 -13.7796 -13.6664 -13.6664
   -13.6657 -13.6657 -13.6497 -13.6497 -13.6292 -13.6291 -13.6139 -13.6139
   -13.4792 -13.4792 -13.4775 -13.4775  -6.3027  -6.3027  -6.2546  -6.2545
    -6.0497  -6.0497  -6.0458  -6.0458  -5.8829  -5.8829  -5.7542  -5.7542
    -5.7476  -5.7476  -5.7070  -5.7070  -5.6999  -5.6999  -5.6785  -5.6785
    -5.6717  -5.6714  -5.3615  -5.3613  -5.2286  -5.2286  -5.1829  -5.1829
    -5.0818  -5.0818  -5.0701  -5.0701  -4.9990  -4.9988  -4.9702  -4.9702
    -4.9668  -4.9668  -4.9497  -4.9497  -4.7979  -4.7979  -4.7792  -4.7792
    -4.7544  -4.7544  -4.7230  -4.7230  -4.4918  -4.4918  -4.4896  -4.4895
    -4.4660  -4.4660  -4.1409  -4.1409  -3.9665  -3.9665  -3.8401  -3.8401
    -3.8113  -3.8113  -3.7951  -3.7951  -3.6716  -3.6716  -3.6710  -3.6710
    -3.5500  -3.5498  -3.3599  -3.3599  -3.3145  -3.3145  -3.1192  -3.1192
    -3.1155  -3.1155  -3.1017  -3.1014  -2.9682  -2.9682  -2.9102  -2.9102
    -2.8990  -2.8990  -2.8599  -2.8599  -2.8317  -2.8316  -2.8276  -2.8276
    -2.6623  -2.6623  -2.6397  -2.6396  -2.6298  -2.6298  -2.6118  -2.6117
    -2.5743  -2.5743  -2.5414  -2.5414  -2.3954  -2.3953  -2.2991  -2.2990
    -1.8152  -1.8152  -1.7708  -1.7708  -1.7342  -1.7342  -1.6924  -1.6924
    -1.6774  -1.6774  -1.6364  -1.6363  -1.1276  -1.1276  -0.9922  -0.9922
    -0.9096  -0.9095   0.6330   0.6330   0.6342   0.6342   0.8568   0.8568
     0.8657   0.8657   0.9445   0.9445   0.9537   0.9538   0.9606   0.9606
     1.0011   1.0011   1.0321   1.0322   1.1396   1.1396   1.1484   1.1484
     1.2318   1.2318   1.2432   1.2432   1.2474   1.2475   1.2868   1.2869
     1.3370   1.3371   1.4954   1.4954   1.4971   1.4973   1.5557   1.5558

          k = 0.0000 0.2021 0.0000 ( 31623 PWs)   bands (ev):

   -56.5762 -56.5762 -56.5726 -56.5726 -56.5703 -56.5703 -56.5703 -56.5703
   -56.5695 -56.5695 -56.5695 -56.5695 -56.5671 -56.5671 -56.5607 -56.5607
   -56.5595 -56.5595 -34.0742 -34.0742 -34.0584 -34.0584 -34.0566 -34.0566
   -34.0548 -34.0548 -34.0507 -34.0507 -34.0395 -34.0395 -34.0362 -34.0362
   -34.0311 -34.0311 -33.9831 -33.9831 -32.0510 -32.0510 -32.0321 -32.0321
   -32.0243 -32.0243 -32.0190 -32.0190 -32.0172 -32.0172 -31.9963 -31.9963
   -31.9927 -31.9927 -31.9812 -31.9812 -31.9515 -31.9515 -31.9418 -31.9418
   -31.9313 -31.9313 -31.9217 -31.9217 -31.9213 -31.9213 -31.9207 -31.9207
   -31.9176 -31.9176 -31.9163 -31.9163 -31.9143 -31.9143 -31.8516 -31.8516
   -15.0628 -15.0627 -14.4002 -14.4001 -14.2637 -14.2637 -14.2578 -14.2578
   -14.1413 -14.1413 -14.0411 -14.0411 -14.0333 -14.0333 -13.9560 -13.9559
   -13.8385 -13.8383 -13.7752 -13.7752 -13.7748 -13.7748 -13.6751 -13.6751
   -13.6746 -13.6746 -13.6422 -13.6422 -13.6400 -13.6399 -13.6058 -13.6058
   -13.4752 -13.4752 -13.4735 -13.4735  -6.3178  -6.3178  -6.2153  -6.2152
    -6.0351  -6.0351  -6.0322  -6.0322  -5.8971  -5.8971  -5.7618  -5.7618
    -5.7289  -5.7289  -5.7233  -5.7233  -5.7181  -5.7181  -5.6730  -5.6727
    -5.6339  -5.6339  -5.3231  -5.3229  -5.2004  -5.2004  -5.1607  -5.1607
    -5.0825  -5.0825  -5.0723  -5.0723  -5.0333  -5.0330  -4.9788  -4.9788
    -4.9761  -4.9761  -4.9579  -4.9579  -4.8118  -4.8118  -4.7927  -4.7927
    -4.7821  -4.7821  -4.7548  -4.7548  -4.5534  -4.5533  -4.5501  -4.5501
    -4.5160  -4.5160  -4.1365  -4.1365  -3.9573  -3.9573  -3.8058  -3.8058
    -3.7830  -3.7830  -3.7768  -3.7767  -3.6495  -3.6495  -3.6489  -3.6489
    -3.5144  -3.5142  -3.3957  -3.3957  -3.3154  -3.3154  -3.1344  -3.1343
    -3.1340  -3.1340  -3.0673  -3.0670  -2.9604  -2.9603  -2.9061  -2.9061
    -2.8895  -2.8895  -2.8406  -2.8406  -2.8280  -2.8279  -2.8237  -2.8237
    -2.6313  -2.6313  -2.6289  -2.6289  -2.6126  -2.6125  -2.6030  -2.6030
    -2.5931  -2.5931  -2.5278  -2.5277  -2.4078  -2.4078  -2.2990  -2.2990
    -1.8244  -1.8244  -1.7901  -1.7901  -1.7508  -1.7508  -1.7179  -1.7179
    -1.6976  -1.6976  -1.6698  -1.6697  -1.1041  -1.1041  -0.9661  -0.9661
    -0.8993  -0.8992   0.5968   0.5968   0.6007   0.6007   0.8759   0.8759
     0.8843   0.8843   0.9444   0.9444   0.9594   0.9594   0.9646   0.9647
     0.9975   0.9976   1.0210   1.0210   1.1286   1.1286   1.1364   1.1364
     1.2165   1.2165   1.2252   1.2252   1.2637   1.2638   1.2640   1.2641
     1.3693   1.3695   1.4971   1.4972   1.5342   1.5343   1.5617   1.5618

          k = 0.0000 0.1732 0.0000 ( 31617 PWs)   bands (ev):

   -56.5761 -56.5761 -56.5722 -56.5722 -56.5710 -56.5710 -56.5706 -56.5706
   -56.5696 -56.5696 -56.5689 -56.5689 -56.5670 -56.5670 -56.5603 -56.5603
   -56.5591 -56.5591 -34.0740 -34.0740 -34.0572 -34.0572 -34.0559 -34.0559
   -34.0522 -34.0522 -34.0487 -34.0487 -34.0414 -34.0414 -34.0384 -34.0384
   -34.0331 -34.0331 -33.9822 -33.9822 -32.0499 -32.0499 -32.0293 -32.0293
   -32.0209 -32.0209 -32.0165 -32.0165 -32.0151 -32.0151 -31.9987 -31.9987
   -31.9955 -31.9955 -31.9844 -31.9844 -31.9535 -31.9535 -31.9432 -31.9432
   -31.9314 -31.9314 -31.9212 -31.9212 -31.9201 -31.9201 -31.9197 -31.9197
   -31.9185 -31.9185 -31.9174 -31.9174 -31.9156 -31.9156 -31.8491 -31.8491
   -15.0725 -15.0725 -14.3656 -14.3655 -14.2514 -14.2514 -14.2462 -14.2462
   -14.1459 -14.1458 -14.0593 -14.0593 -14.0527 -14.0527 -13.9821 -13.9819
   -13.8228 -13.8226 -13.7700 -13.7700 -13.7696 -13.7696 -13.6837 -13.6837
   -13.6832 -13.6832 -13.6515 -13.6513 -13.6355 -13.6355 -13.5987 -13.5987
   -13.4717 -13.4717 -13.4700 -13.4700  -6.3311  -6.3311  -6.1735  -6.1734
    -6.0186  -6.0186  -6.0166  -6.0166  -5.9098  -5.9098  -5.7742  -5.7742
    -5.7517  -5.7517  -5.7475  -5.7475  -5.6830  -5.6827  -5.6813  -5.6813
    -5.5872  -5.5872  -5.2825  -5.2822  -5.1726  -5.1726  -5.1389  -5.1389
    -5.0823  -5.0823  -5.0736  -5.0736  -5.0582  -5.0579  -4.9860  -4.9860
    -4.9839  -4.9839  -4.9668  -4.9667  -4.8347  -4.8347  -4.8127  -4.8127
    -4.8094  -4.8094  -4.7862  -4.7862  -4.6154  -4.6153  -4.5965  -4.5965
    -4.5554  -4.5554  -4.1321  -4.1321  -3.9484  -3.9484  -3.7710  -3.7710
    -3.7580  -3.7580  -3.7537  -3.7537  -3.6305  -3.6305  -3.6293  -3.6293
    -3.4839  -3.4838  -3.4299  -3.4299  -3.3167  -3.3167  -3.1516  -3.1516
    -3.1474  -3.1474  -3.0351  -3.0348  -2.9518  -2.9518  -2.9043  -2.9043
    -2.8853  -2.8853  -2.8305  -2.8305  -2.8290  -2.8290  -2.8289  -2.8288
    -2.6181  -2.6181  -2.6077  -2.6077  -2.6023  -2.6023  -2.6005  -2.6005
    -2.5702  -2.5702  -2.5188  -2.5187  -2.4214  -2.4213  -2.3003  -2.3003
    -1.8315  -1.8314  -1.8065  -1.8065  -1.7665  -1.7665  -1.7417  -1.7417
    -1.7178  -1.7178  -1.7014  -1.7013  -1.0796  -1.0796  -0.9391  -0.9391
    -0.8903  -0.8902   0.5646   0.5646   0.5713   0.5713   0.8951   0.8951
     0.9028   0.9028   0.9467   0.9467   0.9601   0.9601   0.9782   0.9783
     0.9922   0.9923   1.0136   1.0136   1.1189   1.1189   1.1255   1.1255
     1.2033   1.2033   1.2098   1.2098   1.2410   1.2410   1.2744   1.2744
     1.3990   1.3992   1.4906   1.4907   1.5754   1.5754   1.5780   1.5781

          k = 0.0000 0.1443 0.0000 ( 31627 PWs)   bands (ev):

   -56.5755 -56.5755 -56.5718 -56.5718 -56.5706 -56.5706 -56.5706 -56.5706
   -56.5700 -56.5700 -56.5700 -56.5700 -56.5675 -56.5675 -56.5608 -56.5608
   -56.5596 -56.5596 -34.0752 -34.0752 -34.0576 -34.0576 -34.0553 -34.0553
   -34.0524 -34.0524 -34.0494 -34.0494 -34.0415 -34.0415 -34.0390 -34.0390
   -34.0351 -34.0351 -33.9804 -33.9804 -32.0511 -32.0511 -32.0270 -32.0270
   -32.0199 -32.0199 -32.0163 -32.0163 -32.0154 -32.0154 -32.0005 -32.0005
   -31.9977 -31.9977 -31.9884 -31.9884 -31.9551 -31.9551 -31.9442 -31.9442
   -31.9305 -31.9305 -31.9210 -31.9210 -31.9207 -31.9207 -31.9201 -31.9201
   -31.9173 -31.9173 -31.9164 -31.9164 -31.9159 -31.9159 -31.8465 -31.8465
   -15.0807 -15.0807 -14.3310 -14.3308 -14.2384 -14.2384 -14.2339 -14.2339
   -14.1497 -14.1496 -14.0773 -14.0773 -14.0719 -14.0719 -14.0095 -14.0094
   -13.8071 -13.8070 -13.7644 -13.7644 -13.7640 -13.7640 -13.6921 -13.6921
   -13.6917 -13.6917 -13.6636 -13.6634 -13.6300 -13.6300 -13.5927 -13.5927
   -13.4687 -13.4687 -13.4670 -13.4670  -6.3423  -6.3423  -6.1301  -6.1299
    -6.0013  -6.0013  -6.0000  -6.0000  -5.9206  -5.9206  -5.7847  -5.7847
    -5.7752  -5.7752  -5.7721  -5.7721  -5.7023  -5.7020  -5.6456  -5.6456
    -5.5401  -5.5401  -5.2400  -5.2397  -5.1460  -5.1460  -5.1184  -5.1184
    -5.0813  -5.0813  -5.0740  -5.0740  -5.0738  -5.0735  -4.9920  -4.9920
    -4.9906  -4.9906  -4.9765  -4.9764  -4.8692  -4.8692  -4.8400  -4.8400
    -4.8360  -4.8360  -4.8169  -4.8169  -4.6772  -4.6772  -4.6298  -4.6298
    -4.5843  -4.5843  -4.1281  -4.1281  -3.9404  -3.9404  -3.7382  -3.7382
    -3.7363  -3.7363  -3.7258  -3.7258  -3.6140  -3.6140  -3.6124  -3.6124
    -3.4632  -3.4632  -3.4595  -3.4594  -3.3163  -3.3162  -3.1669  -3.1669
    -3.1591  -3.1591  -3.0053  -3.0051  -2.9429  -2.9428  -2.9039  -2.9039
    -2.8847  -2.8847  -2.8400  -2.8400  -2.8341  -2.8340  -2.8301  -2.8301
    -2.6002  -2.6002  -2.5995  -2.5995  -2.5982  -2.5981  -2.5734  -2.5734
    -2.5439  -2.5439  -2.5122  -2.5122  -2.4358  -2.4358  -2.3000  -2.3000
    -1.8368  -1.8368  -1.8218  -1.8218  -1.7805  -1.7805  -1.7654  -1.7654
    -1.7371  -1.7371  -1.7288  -1.7288  -1.0600  -1.0600  -0.9170  -0.9170
    -0.8832  -0.8832   0.5367   0.5367   0.5460   0.5460   0.9163   0.9163
     0.9233   0.9233   0.9491   0.9491   0.9607   0.9607   0.9879   0.9880
     0.9884   0.9885   1.0138   1.0138   1.1099   1.1099   1.1152   1.1152
     1.1852   1.1852   1.1899   1.1899   1.2177   1.2177   1.2831   1.2832
     1.4248   1.4249   1.4869   1.4869   1.5922   1.5922   1.6196   1.6197

          k = 0.0000 0.1155 0.0000 ( 31635 PWs)   bands (ev):

   -56.5759 -56.5759 -56.5730 -56.5730 -56.5702 -56.5702 -56.5699 -56.5699
   -56.5696 -56.5696 -56.5696 -56.5696 -56.5672 -56.5672 -56.5617 -56.5617
   -56.5605 -56.5605 -34.0770 -34.0770 -34.0591 -34.0591 -34.0530 -34.0530
   -34.0507 -34.0507 -34.0483 -34.0483 -34.0409 -34.0409 -34.0399 -34.0399
   -34.0382 -34.0382 -33.9806 -33.9806 -32.0526 -32.0526 -32.0227 -32.0227
   -32.0177 -32.0177 -32.0165 -32.0165 -32.0144 -32.0144 -32.0004 -32.0004
   -31.9981 -31.9981 -31.9948 -31.9948 -31.9571 -31.9571 -31.9459 -31.9459
   -31.9311 -31.9311 -31.9204 -31.9204 -31.9199 -31.9199 -31.9196 -31.9196
   -31.9186 -31.9186 -31.9163 -31.9163 -31.9155 -31.9155 -31.8457 -31.8457
   -15.0875 -15.0875 -14.2967 -14.2965 -14.2244 -14.2244 -14.2207 -14.2207
   -14.1528 -14.1528 -14.0951 -14.0951 -14.0908 -14.0908 -14.0380 -14.0378
   -13.7918 -13.7916 -13.7583 -13.7583 -13.7580 -13.7580 -13.7004 -13.7004
   -13.7001 -13.7001 -13.6762 -13.6760 -13.6255 -13.6255 -13.5878 -13.5878
   -13.4663 -13.4663 -13.4646 -13.4646  -6.3516  -6.3516  -6.0844  -6.0842
    -5.9822  -5.9822  -5.9814  -5.9814  -5.9297  -5.9297  -5.7984  -5.7984
    -5.7963  -5.7963  -5.7936  -5.7936  -5.7305  -5.7302  -5.6120  -5.6120
    -5.4933  -5.4933  -5.1957  -5.1954  -5.1213  -5.1213  -5.1001  -5.1001
    -5.0818  -5.0814  -5.0795  -5.0795  -5.0734  -5.0734  -4.9951  -4.9951
    -4.9946  -4.9946  -4.9860  -4.9858  -4.9120  -4.9120  -4.8713  -4.8713
    -4.8618  -4.8618  -4.8468  -4.8468  -4.7387  -4.7387  -4.6511  -4.6511
    -4.6037  -4.6037  -4.1246  -4.1246  -3.9333  -3.9333  -3.7143  -3.7143
    -3.7063  -3.7063  -3.6980  -3.6980  -3.6027  -3.6027  -3.6014  -3.6013
    -3.4959  -3.4959  -3.4419  -3.4418  -3.3148  -3.3148  -3.1801  -3.1801
    -3.1692  -3.1692  -2.9795  -2.9793  -2.9331  -2.9330  -2.9037  -2.9037
    -2.8861  -2.8861  -2.8529  -2.8529  -2.8430  -2.8429  -2.8383  -2.8383
    -2.5873  -2.5873  -2.5859  -2.5858  -2.5791  -2.5791  -2.5499  -2.5499
    -2.5238  -2.5238  -2.5100  -2.5100  -2.4509  -2.4509  -2.3004  -2.3004
    -1.8397  -1.8397  -1.8312  -1.8312  -1.7927  -1.7927  -1.7845  -1.7845
    -1.7557  -1.7557  -1.7551  -1.7551  -1.0434  -1.0434  -0.8982  -0.8982
    -0.8778  -0.8777   0.5102   0.5102   0.5219   0.5219   0.9377   0.9377
     0.9440   0.9440   0.9552   0.9552   0.9645   0.9645   0.9844   0.9844
     0.9863   0.9863   1.0242   1.0242   1.1036   1.1036   1.1075   1.1075
     1.1678   1.1678   1.1713   1.1713   1.1963   1.1964   1.2868   1.2869
     1.4450   1.4451   1.4836   1.4836   1.6077   1.6077   1.6574   1.6575

          k = 0.0000 0.0866 0.0000 ( 31641 PWs)   bands (ev):

   -56.5755 -56.5755 -56.5717 -56.5717 -56.5705 -56.5705 -56.5703 -56.5703
   -56.5701 -56.5701 -56.5698 -56.5698 -56.5674 -56.5674 -56.5622 -56.5622
   -56.5610 -56.5610 -34.0780 -34.0780 -34.0600 -34.0600 -34.0511 -34.0511
   -34.0494 -34.0494 -34.0476 -34.0476 -34.0426 -34.0426 -34.0411 -34.0411
   -34.0395 -34.0395 -33.9795 -33.9795 -32.0536 -32.0536 -32.0194 -32.0194
   -32.0172 -32.0172 -32.0152 -32.0152 -32.0131 -32.0131 -32.0024 -32.0024
   -32.0006 -32.0006 -31.9967 -31.9967 -31.9585 -31.9585 -31.9469 -31.9469
   -31.9302 -31.9302 -31.9197 -31.9197 -31.9195 -31.9195 -31.9192 -31.9192
   -31.9185 -31.9185 -31.9178 -31.9178 -31.9170 -31.9170 -31.8444 -31.8444
   -15.0928 -15.0928 -14.2624 -14.2622 -14.2097 -14.2097 -14.2069 -14.2069
   -14.1552 -14.1552 -14.1125 -14.1125 -14.1093 -14.1093 -14.0677 -14.0676
   -13.7763 -13.7762 -13.7520 -13.7520 -13.7518 -13.7518 -13.7085 -13.7085
   -13.7082 -13.7082 -13.6894 -13.6892 -13.6219 -13.6219 -13.5840 -13.5840
   -13.4643 -13.4643 -13.4627 -13.4627  -6.3587  -6.3587  -6.0375  -6.0374
    -5.9618  -5.9618  -5.9614  -5.9614  -5.9368  -5.9368  -5.8227  -5.8227
    -5.8214  -5.8214  -5.8005  -5.8005  -5.7648  -5.7646  -5.5820  -5.5820
    -5.4483  -5.4483  -5.1515  -5.1510  -5.1000  -5.1000  -5.0854  -5.0854
    -5.0827  -5.0823  -5.0774  -5.0774  -5.0726  -5.0726  -4.9950  -4.9950
    -4.9945  -4.9942  -4.9937  -4.9937  -4.9576  -4.9576  -4.9020  -4.9020
    -4.8869  -4.8869  -4.8761  -4.8761  -4.7972  -4.7971  -4.6638  -4.6638
    -4.6161  -4.6161  -4.1216  -4.1216  -3.9274  -3.9274  -3.6909  -3.6909
    -3.6773  -3.6773  -3.6724  -3.6724  -3.5979  -3.5979  -3.5970  -3.5970
    -3.5268  -3.5267  -3.4300  -3.4299  -3.3114  -3.3114  -3.1907  -3.1907
    -3.1772  -3.1772  -2.9578  -2.9576  -2.9228  -2.9228  -2.9029  -2.9029
    -2.8882  -2.8882  -2.8655  -2.8655  -2.8530  -2.8529  -2.8512  -2.8512
    -2.5701  -2.5700  -2.5698  -2.5698  -2.5588  -2.5588  -2.5320  -2.5320
    -2.5112  -2.5112  -2.5090  -2.5089  -2.4668  -2.4668  -2.2986  -2.2986
    -1.8383  -1.8382  -1.8358  -1.8358  -1.8056  -1.8056  -1.8001  -1.8001
    -1.7764  -1.7764  -1.7759  -1.7759  -1.0303  -1.0303  -0.8831  -0.8831
    -0.8738  -0.8738   0.4902   0.4902   0.5040   0.5040   0.9544   0.9544
     0.9597   0.9597   0.9621   0.9621   0.9693   0.9693   0.9819   0.9819
     0.9851   0.9852   1.0426   1.0427   1.0969   1.0970   1.0995   1.0995
     1.1504   1.1504   1.1525   1.1525   1.1731   1.1732   1.2908   1.2909
     1.4606   1.4607   1.4841   1.4841   1.6223   1.6223   1.7023   1.7024

          k = 0.0000 0.0577 0.0000 ( 31641 PWs)   bands (ev):

   -56.5748 -56.5748 -56.5712 -56.5712 -56.5707 -56.5707 -56.5707 -56.5707
   -56.5703 -56.5703 -56.5701 -56.5701 -56.5676 -56.5676 -56.5622 -56.5622
   -56.5610 -56.5610 -34.0782 -34.0782 -34.0601 -34.0601 -34.0495 -34.0495
   -34.0482 -34.0482 -34.0470 -34.0470 -34.0441 -34.0441 -34.0429 -34.0429
   -34.0410 -34.0410 -33.9780 -33.9780 -32.0538 -32.0538 -32.0173 -32.0173
   -32.0158 -32.0158 -32.0130 -32.0130 -32.0116 -32.0116 -32.0048 -32.0048
   -32.0035 -32.0035 -31.9998 -31.9998 -31.9589 -31.9589 -31.9470 -31.9470
   -31.9294 -31.9294 -31.9195 -31.9195 -31.9194 -31.9194 -31.9192 -31.9192
   -31.9190 -31.9190 -31.9182 -31.9182 -31.9174 -31.9174 -31.8424 -31.8424
   -15.0966 -15.0965 -14.2285 -14.2283 -14.1945 -14.1945 -14.1926 -14.1926
   -14.1569 -14.1569 -14.1295 -14.1295 -14.1274 -14.1274 -14.0983 -14.0982
   -13.7611 -13.7610 -13.7455 -13.7455 -13.7453 -13.7453 -13.7164 -13.7164
   -13.7162 -13.7162 -13.7030 -13.7028 -13.6194 -13.6194 -13.5813 -13.5813
   -13.4629 -13.4629 -13.4613 -13.4613  -6.3639  -6.3639  -5.9902  -5.9900
    -5.9417  -5.9417  -5.9403  -5.9403  -5.9401  -5.9401  -5.8469  -5.8469
    -5.8461  -5.8461  -5.8052  -5.8052  -5.8043  -5.8041  -5.5579  -5.5579
    -5.4083  -5.4083  -5.1100  -5.1094  -5.0840  -5.0840  -5.0793  -5.0789
    -5.0758  -5.0758  -5.0751  -5.0751  -5.0716  -5.0716  -5.0001  -5.0001
    -4.9985  -4.9981  -4.9890  -4.9890  -4.9867  -4.9867  -4.9282  -4.9282
    -4.9112  -4.9112  -4.9044  -4.9044  -4.8540  -4.8539  -4.6708  -4.6708
    -4.6233  -4.6233  -4.1193  -4.1193  -3.9229  -3.9229  -3.6669  -3.6669
    -3.6522  -3.6522  -3.6498  -3.6498  -3.5980  -3.5980  -3.5976  -3.5976
    -3.5572  -3.5572  -3.4220  -3.4219  -3.3070  -3.3070  -3.1982  -3.1982
    -3.1827  -3.1827  -2.9415  -2.9413  -2.9118  -2.9117  -2.9005  -2.9005
    -2.8900  -2.8900  -2.8761  -2.8761  -2.8654  -2.8653  -2.8644  -2.8643
    -2.5534  -2.5533  -2.5506  -2.5506  -2.5407  -2.5407  -2.5205  -2.5205
    -2.5091  -2.5091  -2.5062  -2.5062  -2.4834  -2.4834  -2.2970  -2.2970
    -1.8354  -1.8354  -1.8351  -1.8351  -1.8144  -1.8144  -1.8112  -1.8112
    -1.7944  -1.7943  -1.7933  -1.7933  -1.0200  -1.0200  -0.8714  -0.8714
    -0.8705  -0.8705   0.4761   0.4761   0.4915   0.4915   0.9675   0.9675
     0.9698   0.9698   0.9714   0.9714   0.9747   0.9747   0.9811   0.9812
     0.9818   0.9818   1.0631   1.0632   1.0931   1.0931   1.0946   1.0946
     1.1326   1.1326   1.1339   1.1339   1.1491   1.1492   1.2928   1.2929
     1.4726   1.4726   1.4857   1.4857   1.6345   1.6345   1.7451   1.7451

          k = 0.0000 0.0289 0.0000 ( 31651 PWs)   bands (ev):

   -56.5748 -56.5748 -56.5712 -56.5712 -56.5708 -56.5708 -56.5708 -56.5708
   -56.5705 -56.5705 -56.5700 -56.5700 -56.5677 -56.5677 -56.5627 -56.5627
   -56.5615 -56.5615 -34.0791 -34.0791 -34.0610 -34.0610 -34.0473 -34.0473
   -34.0469 -34.0469 -34.0463 -34.0463 -34.0452 -34.0452 -34.0447 -34.0447
   -34.0428 -34.0428 -33.9779 -33.9779 -32.0548 -32.0548 -32.0179 -32.0179
   -32.0115 -32.0115 -32.0105 -32.0105 -32.0098 -32.0098 -32.0069 -32.0069
   -32.0061 -32.0061 -32.0045 -32.0045 -31.9597 -31.9597 -31.9476 -31.9476
   -31.9294 -31.9294 -31.9197 -31.9197 -31.9196 -31.9196 -31.9192 -31.9192
   -31.9190 -31.9190 -31.9184 -31.9184 -31.9174 -31.9174 -31.8421 -31.8421
   -15.0988 -15.0988 -14.1952 -14.1950 -14.1786 -14.1786 -14.1777 -14.1777
   -14.1580 -14.1580 -14.1460 -14.1460 -14.1450 -14.1450 -14.1298 -14.1297
   -13.7462 -13.7461 -13.7387 -13.7386 -13.7385 -13.7385 -13.7240 -13.7240
   -13.7239 -13.7239 -13.7170 -13.7168 -13.6179 -13.6179 -13.5797 -13.5797
   -13.4621 -13.4621 -13.4604 -13.4604  -6.3670  -6.3670  -5.9449  -5.9449
    -5.9421  -5.9419  -5.9180  -5.9180  -5.9178  -5.9177  -5.8709  -5.8709
    -5.8706  -5.8706  -5.8484  -5.8482  -5.8082  -5.8082  -5.5422  -5.5422
    -5.3790  -5.3790  -5.0803  -5.0796  -5.0749  -5.0749  -5.0744  -5.0739
    -5.0729  -5.0728  -5.0716  -5.0716  -5.0708  -5.0707  -5.0316  -5.0316
    -4.9885  -4.9879  -4.9755  -4.9755  -4.9735  -4.9735  -4.9459  -4.9459
    -4.9345  -4.9345  -4.9313  -4.9313  -4.9081  -4.9079  -4.6746  -4.6746
    -4.6274  -4.6274  -4.1179  -4.1179  -3.9202  -3.9202  -3.6410  -3.6410
    -3.6310  -3.6310  -3.6302  -3.6302  -3.6035  -3.6034  -3.6033  -3.6033
    -3.5864  -3.5864  -3.4183  -3.4182  -3.3043  -3.3043  -3.2030  -3.2030
    -3.1863  -3.1863  -2.9314  -2.9314  -2.9002  -2.9001  -2.8958  -2.8958
    -2.8903  -2.8903  -2.8839  -2.8839  -2.8783  -2.8783  -2.8766  -2.8765
    -2.5356  -2.5356  -2.5325  -2.5325  -2.5266  -2.5266  -2.5158  -2.5158
    -2.5099  -2.5099  -2.5088  -2.5088  -2.5004  -2.5004  -2.2961  -2.2961
    -1.8312  -1.8312  -1.8298  -1.8297  -1.8198  -1.8198  -1.8193  -1.8193
    -1.8094  -1.8094  -1.8087  -1.8087  -1.0146  -1.0146  -0.8689  -0.8689
    -0.8650  -0.8650   0.4669   0.4669   0.4833   0.4833   0.9762   0.9762
     0.9769   0.9769   0.9785   0.9785   0.9793   0.9793   0.9805   0.9806
     0.9814   0.9814   1.0826   1.0827   1.0959   1.0959   1.0964   1.0964
     1.1173   1.1173   1.1179   1.1179   1.1272   1.1273   1.2931   1.2932
     1.4789   1.4789   1.4867   1.4867   1.6417   1.6417   1.7849   1.7850

          k = 0.0000 0.0000 0.0000 ( 31679 PWs)   bands (ev):

   -56.5739 -56.5739 -56.5711 -56.5711 -56.5707 -56.5707 -56.5707 -56.5707
   -56.5707 -56.5707 -56.5707 -56.5707 -56.5679 -56.5679 -56.5651 -56.5651
   -56.5637 -56.5637 -34.0828 -34.0828 -34.0646 -34.0646 -34.0465 -34.0465
   -34.0461 -34.0461 -34.0461 -34.0461 -34.0461 -34.0461 -34.0461 -34.0461
   -34.0434 -34.0434 -33.9761 -33.9761 -32.0584 -32.0584 -32.0214 -32.0214
   -32.0090 -32.0090 -32.0090 -32.0090 -32.0088 -32.0088 -32.0088 -32.0088
   -32.0079 -32.0079 -32.0071 -32.0071 -31.9622 -31.9622 -31.9501 -31.9501
   -31.9284 -31.9284 -31.9195 -31.9195 -31.9195 -31.9195 -31.9193 -31.9193
   -31.9193 -31.9193 -31.9185 -31.9185 -31.9175 -31.9175 -31.8399 -31.8399
   -15.0995 -15.0995 -14.1624 -14.1624 -14.1623 -14.1623 -14.1623 -14.1623
   -14.1619 -14.1619 -14.1619 -14.1619 -14.1618 -14.1618 -14.1583 -14.1583
   -13.7317 -13.7317 -13.7316 -13.7316 -13.7315 -13.7315 -13.7312 -13.7312
   -13.7312 -13.7312 -13.7311 -13.7311 -13.6176 -13.6176 -13.5793 -13.5793
   -13.4619 -13.4619 -13.4603 -13.4603  -6.3680  -6.3680  -5.9469  -5.9469
    -5.8949  -5.8949  -5.8948  -5.8948  -5.8947  -5.8947  -5.8945  -5.8945
    -5.8944  -5.8944  -5.8943  -5.8943  -5.8103  -5.8103  -5.5371  -5.5371
    -5.3684  -5.3684  -5.0717  -5.0717  -5.0716  -5.0716  -5.0714  -5.0714
    -5.0710  -5.0710  -5.0709  -5.0709  -5.0707  -5.0707  -5.0439  -5.0439
    -4.9559  -4.9559  -4.9558  -4.9558  -4.9557  -4.9557  -4.9555  -4.9555
    -4.9554  -4.9554  -4.9553  -4.9553  -4.9525  -4.9525  -4.6764  -4.6764
    -4.6293  -4.6293  -4.1175  -4.1175  -3.9193  -3.9193  -3.6147  -3.6147
    -3.6147  -3.6147  -3.6147  -3.6147  -3.6145  -3.6145  -3.6142  -3.6142
    -3.6141  -3.6141  -3.4161  -3.4161  -3.3019  -3.3019  -3.2059  -3.2059
    -3.1887  -3.1887  -2.9278  -2.9278  -2.8887  -2.8887  -2.8886  -2.8886
    -2.8886  -2.8886  -2.8884  -2.8884  -2.8883  -2.8883  -2.8883  -2.8883
    -2.5183  -2.5183  -2.5182  -2.5182  -2.5182  -2.5182  -2.5179  -2.5179
    -2.5178  -2.5178  -2.5178  -2.5178  -2.5099  -2.5099  -2.2954  -2.2954
    -1.8217  -1.8217  -1.8216  -1.8216  -1.8216  -1.8216  -1.8212  -1.8212
    -1.8211  -1.8211  -1.8208  -1.8208  -1.0157  -1.0157  -0.8673  -0.8673
    -0.8656  -0.8656   0.4644   0.4644   0.4811   0.4811   0.9797   0.9797
     0.9798   0.9798   0.9799   0.9799   0.9800   0.9800   0.9806   0.9806
     0.9808   0.9808   1.1040   1.1040   1.1042   1.1042   1.1042   1.1042
     1.1044   1.1044   1.1046   1.1046   1.1052   1.1052   1.2938   1.2938
     1.4824   1.4824   1.4878   1.4878   1.6456   1.6456   1.8248   1.8250

          k =-0.0167 0.0289 0.0000 ( 31655 PWs)   bands (ev):

   -56.5753 -56.5753 -56.5715 -56.5715 -56.5711 -56.5711 -56.5708 -56.5708
   -56.5703 -56.5703 -56.5701 -56.5701 -56.5677 -56.5677 -56.5625 -56.5625
   -56.5612 -56.5612 -34.0791 -34.0782 -34.0610 -34.0600 -34.0478 -34.0474
   -34.0472 -34.0470 -34.0466 -34.0459 -34.0457 -34.0454 -34.0450 -34.0446
   -34.0430 -34.0429 -33.9788 -33.9788 -32.0546 -32.0540 -32.0177 -32.0171
   -32.0124 -32.0120 -32.0119 -32.0115 -32.0092 -32.0083 -32.0082 -32.0074
   -32.0054 -32.0050 -32.0048 -32.0044 -31.9599 -31.9590 -31.9479 -31.9469
   -31.9299 -31.9299 -31.9198 -31.9196 -31.9196 -31.9196 -31.9194 -31.9193
   -31.9192 -31.9192 -31.9184 -31.9184 -31.9175 -31.9175 -31.8432 -31.8432
   -15.0986 -15.0986 -14.1954 -14.1951 -14.1947 -14.1945 -14.1623 -14.1620
   -14.1609 -14.1607 -14.1579 -14.1579 -14.1301 -14.1299 -14.1294 -14.1292
   -13.7463 -13.7462 -13.7460 -13.7459 -13.7313 -13.7312 -13.7310 -13.7309
   -13.7171 -13.7170 -13.7168 -13.7167 -13.6181 -13.6180 -13.5798 -13.5798
   -13.4622 -13.4622 -13.4605 -13.4605  -6.3666  -6.3666  -5.9447  -5.9445
    -5.9421  -5.9419  -5.9418  -5.9417  -5.8941  -5.8939  -5.8937  -5.8936
    -5.8484  -5.8482  -5.8481  -5.8479  -5.8081  -5.8079  -5.5441  -5.5436
    -5.3827  -5.3820  -5.0815  -5.0814  -5.0787  -5.0785  -5.0748  -5.0746
    -5.0735  -5.0734  -5.0727  -5.0726  -5.0694  -5.0692  -5.0279  -5.0277
    -4.9888  -4.9887  -4.9879  -4.9877  -4.9573  -4.9572  -4.9537  -4.9535
    -4.9439  -4.9439  -4.9093  -4.9091  -4.9069  -4.9068  -4.6743  -4.6741
    -4.6269  -4.6268  -4.1181  -4.1180  -3.9205  -3.9205  -3.6427  -3.6425
    -3.6419  -3.6419  -3.6197  -3.6192  -3.6190  -3.6186  -3.5881  -3.5879
    -3.5878  -3.5877  -3.4193  -3.4191  -3.3054  -3.3051  -3.2027  -3.2024
    -3.1861  -3.1859  -2.9326  -2.9326  -2.9016  -2.9014  -2.8979  -2.8978
    -2.8898  -2.8896  -2.8825  -2.8822  -2.8779  -2.8778  -2.8741  -2.8739
    -2.5389  -2.5387  -2.5353  -2.5352  -2.5276  -2.5273  -2.5190  -2.5187
    -2.5103  -2.5098  -2.5045  -2.5044  -2.4995  -2.4993  -2.2966  -2.2962
    -1.8332  -1.8329  -1.8272  -1.8268  -1.8251  -1.8247  -1.8127  -1.8124
    -1.8119  -1.8115  -1.8055  -1.8052  -1.0148  -1.0145  -0.8696  -0.8696
    -0.8653  -0.8650   0.4678   0.4703   0.4841   0.4865   0.9739   0.9745
     0.9769   0.9771   0.9775   0.9776   0.9787   0.9788   0.9790   0.9792
     0.9805   0.9808   1.0837   1.0839   1.0840   1.0844   1.1079   1.1083
     1.1087   1.1091   1.1272   1.1276   1.1277   1.1279   1.2927   1.2929
     1.4773   1.4776   1.4862   1.4863   1.6401   1.6404   1.7824   1.7840

          k =-0.0333 0.0577 0.0000 ( 31651 PWs)   bands (ev):

   -56.5753 -56.5753 -56.5711 -56.5711 -56.5706 -56.5706 -56.5705 -56.5705
   -56.5703 -56.5703 -56.5703 -56.5703 -56.5676 -56.5676 -56.5628 -56.5628
   -56.5616 -56.5616 -34.0791 -34.0790 -34.0610 -34.0609 -34.0506 -34.0499
   -34.0498 -34.0491 -34.0466 -34.0456 -34.0452 -34.0443 -34.0419 -34.0412
   -34.0405 -34.0399 -33.9789 -33.9789 -32.0551 -32.0542 -32.0186 -32.0179
   -32.0167 -32.0163 -32.0160 -32.0155 -32.0095 -32.0085 -32.0078 -32.0068
   -32.0006 -32.0001 -31.9999 -31.9993 -31.9599 -31.9589 -31.9480 -31.9471
   -31.9299 -31.9299 -31.9200 -31.9199 -31.9196 -31.9195 -31.9193 -31.9191
   -31.9186 -31.9185 -31.9178 -31.9176 -31.9170 -31.9169 -31.8436 -31.8436
   -15.0956 -15.0956 -14.2285 -14.2283 -14.2273 -14.2270 -14.1611 -14.1608
   -14.1584 -14.1582 -14.1565 -14.1565 -14.0986 -14.0983 -14.0971 -14.0969
   -13.7610 -13.7608 -13.7607 -13.7606 -13.7304 -13.7302 -13.7301 -13.7299
   -13.7028 -13.7027 -13.7026 -13.7024 -13.6203 -13.6200 -13.5822 -13.5819
   -13.4633 -13.4632 -13.4617 -13.4616  -6.3625  -6.3625  -5.9895  -5.9894
    -5.9892  -5.9891  -5.9405  -5.9403  -5.8916  -5.8914  -5.8912  -5.8909
    -5.8041  -5.8039  -5.8038  -5.8037  -5.8032  -5.8030  -5.5661  -5.5635
    -5.4217  -5.4184  -5.1133  -5.1132  -5.1063  -5.1062  -5.0800  -5.0798
    -5.0780  -5.0778  -5.0737  -5.0736  -5.0669  -5.0667  -4.9982  -4.9981
    -4.9978  -4.9977  -4.9882  -4.9875  -4.9589  -4.9587  -4.9516  -4.9515
    -4.9211  -4.9209  -4.8566  -4.8564  -4.8517  -4.8516  -4.6706  -4.6682
    -4.6229  -4.6208  -4.1202  -4.1197  -3.9245  -3.9239  -3.6721  -3.6720
    -3.6698  -3.6697  -3.6334  -3.6329  -3.6315  -3.6311  -3.5633  -3.5632
    -3.5618  -3.5617  -3.4244  -3.4243  -3.3088  -3.3086  -3.1964  -3.1958
    -3.1814  -3.1810  -2.9460  -2.9456  -2.9132  -2.9130  -2.9062  -2.9061
    -2.8861  -2.8859  -2.8725  -2.8723  -2.8656  -2.8655  -2.8582  -2.8580
    -2.5594  -2.5593  -2.5542  -2.5541  -2.5459  -2.5456  -2.5307  -2.5304
    -2.5105  -2.5077  -2.4954  -2.4953  -2.4844  -2.4842  -2.2987  -2.2963
    -1.8419  -1.8415  -1.8261  -1.8256  -1.8246  -1.8243  -1.7979  -1.7976
    -1.7966  -1.7962  -1.7848  -1.7844  -1.0240  -1.0238  -0.8757  -0.8755
    -0.8718  -0.8718   0.4770   0.4791   0.4920   0.4941   0.9602   0.9608
     0.9662   0.9668   0.9752   0.9754   0.9758   0.9764   0.9773   0.9776
     0.9789   0.9792   1.0686   1.0688   1.0698   1.0702   1.1186   1.1190
     1.1203   1.1207   1.1506   1.1511   1.1519   1.1523   1.2920   1.2926
     1.4686   1.4693   1.4849   1.4851   1.6305   1.6309   1.7383   1.7394

          k =-0.0500 0.0866 0.0000 ( 31639 PWs)   bands (ev):

   -56.5759 -56.5759 -56.5719 -56.5719 -56.5712 -56.5712 -56.5699 -56.5699
   -56.5694 -56.5694 -56.5693 -56.5693 -56.5670 -56.5670 -56.5624 -56.5624
   -56.5612 -56.5612 -34.0783 -34.0780 -34.0604 -34.0600 -34.0520 -34.0511
   -34.0508 -34.0500 -34.0454 -34.0444 -34.0432 -34.0425 -34.0411 -34.0402
   -34.0397 -34.0389 -33.9805 -33.9805 -32.0540 -32.0532 -32.0205 -32.0197
   -32.0191 -32.0182 -32.0176 -32.0168 -32.0090 -32.0080 -32.0064 -32.0054
   -31.9980 -31.9975 -31.9969 -31.9964 -31.9594 -31.9577 -31.9479 -31.9463
   -31.9310 -31.9310 -31.9197 -31.9196 -31.9194 -31.9193 -31.9184 -31.9181
   -31.9177 -31.9176 -31.9174 -31.9173 -31.9163 -31.9160 -31.8455 -31.8454
   -15.0906 -15.0905 -14.2618 -14.2616 -14.2601 -14.2598 -14.1586 -14.1583
   -14.1546 -14.1544 -14.1542 -14.1542 -14.0676 -14.0673 -14.0654 -14.0651
   -13.7758 -13.7756 -13.7755 -13.7753 -13.7288 -13.7286 -13.7285 -13.7283
   -13.6889 -13.6887 -13.6886 -13.6884 -13.6239 -13.6231 -13.5861 -13.5853
   -13.4653 -13.4650 -13.4637 -13.4633  -6.3557  -6.3557  -6.0357  -6.0355
    -6.0350  -6.0348  -5.9344  -5.9333  -5.8875  -5.8872  -5.8869  -5.8866
    -5.7982  -5.7969  -5.7639  -5.7638  -5.7625  -5.7623  -5.5991  -5.5917
    -5.4734  -5.4644  -5.1573  -5.1572  -5.1463  -5.1461  -5.0835  -5.0834
    -5.0807  -5.0806  -5.0742  -5.0740  -5.0637  -5.0635  -4.9937  -4.9935
    -4.9930  -4.9929  -4.9601  -4.9600  -4.9495  -4.9494  -4.9366  -4.9363
    -4.8883  -4.8877  -4.8013  -4.8011  -4.7938  -4.7936  -4.6634  -4.6547
    -4.6152  -4.6077  -4.1237  -4.1221  -3.9309  -3.9290  -3.7022  -3.7021
    -3.6975  -3.6975  -3.6562  -3.6557  -3.6524  -3.6520  -3.5411  -3.5410
    -3.5376  -3.5375  -3.4352  -3.4349  -3.3134  -3.3134  -3.1872  -3.1851
    -3.1745  -3.1731  -2.9678  -2.9666  -2.9235  -2.9233  -2.9137  -2.9135
    -2.8782  -2.8780  -2.8609  -2.8607  -2.8525  -2.8524  -2.8426  -2.8425
    -2.5786  -2.5785  -2.5744  -2.5743  -2.5701  -2.5698  -2.5515  -2.5512
    -2.5137  -2.5052  -2.4909  -2.4909  -2.4734  -2.4733  -2.3035  -2.2961
    -1.8432  -1.8429  -1.8182  -1.8178  -1.8165  -1.8162  -1.7816  -1.7812
    -1.7762  -1.7758  -1.7635  -1.7632  -1.0375  -1.0357  -0.8913  -0.8893
    -0.8756  -0.8755   0.4974   0.4980   0.5102   0.5109   0.9462   0.9467
     0.9551   0.9556   0.9661   0.9665   0.9671   0.9676   0.9755   0.9758
     0.9801   0.9803   1.0593   1.0596   1.0630   1.0634   1.1330   1.1333
     1.1357   1.1360   1.1766   1.1771   1.1789   1.1793   1.2880   1.2893
     1.4529   1.4544   1.4831   1.4834   1.6150   1.6159   1.6890   1.6894

          k =-0.0667 0.1155 0.0000 ( 31619 PWs)   bands (ev):

   -56.5753 -56.5753 -56.5719 -56.5719 -56.5713 -56.5713 -56.5699 -56.5699
   -56.5695 -56.5695 -56.5694 -56.5694 -56.5671 -56.5671 -56.5612 -56.5612
   -56.5597 -56.5597 -34.0763 -34.0751 -34.0585 -34.0574 -34.0538 -34.0530
   -34.0522 -34.0514 -34.0468 -34.0458 -34.0440 -34.0431 -34.0389 -34.0377
   -34.0377 -34.0365 -33.9799 -33.9799 -32.0517 -32.0513 -32.0241 -32.0234
   -32.0220 -32.0213 -32.0163 -32.0155 -32.0102 -32.0092 -32.0067 -32.0058
   -31.9937 -31.9932 -31.9924 -31.9919 -31.9573 -31.9543 -31.9460 -31.9434
   -31.9305 -31.9305 -31.9198 -31.9197 -31.9194 -31.9193 -31.9191 -31.9186
   -31.9184 -31.9182 -31.9175 -31.9173 -31.9168 -31.9166 -31.8453 -31.8453
   -15.0834 -15.0834 -14.2950 -14.2947 -14.2928 -14.2925 -14.1549 -14.1547
   -14.1509 -14.1509 -14.1497 -14.1494 -14.0374 -14.0371 -14.0344 -14.0341
   -13.7905 -13.7903 -13.7902 -13.7900 -13.7268 -13.7265 -13.7263 -13.7261
   -13.6753 -13.6750 -13.6750 -13.6747 -13.6292 -13.6271 -13.5917 -13.5897
   -13.4681 -13.4673 -13.4664 -13.4656  -6.3461  -6.3461  -6.0809  -6.0807
    -6.0797  -6.0795  -5.9258  -5.9224  -5.8820  -5.8817  -5.8812  -5.8809
    -5.7900  -5.7862  -5.7285  -5.7283  -5.7261  -5.7259  -5.6401  -5.6248
    -5.5308  -5.5135  -5.2041  -5.2040  -5.1892  -5.1891  -5.0826  -5.0825
    -5.0789  -5.0787  -5.0748  -5.0747  -5.0602  -5.0600  -4.9845  -4.9843
    -4.9834  -4.9833  -4.9616  -4.9614  -4.9479  -4.9477  -4.8877  -4.8817
    -4.8538  -4.8495  -4.7430  -4.7428  -4.7332  -4.7330  -4.6509  -4.6279
    -4.6024  -4.5831  -4.1284  -4.1251  -3.9395  -3.9356  -3.7322  -3.7321
    -3.7245  -3.7245  -3.6877  -3.6873  -3.6808  -3.6803  -3.5222  -3.5221
    -3.5158  -3.5156  -3.4523  -3.4509  -3.3157  -3.3149  -3.1746  -3.1693
    -3.1649  -3.1609  -2.9960  -2.9936  -2.9325  -2.9324  -2.9203  -2.9202
    -2.8687  -2.8685  -2.8524  -2.8522  -2.8389  -2.8388  -2.8291  -2.8290
    -2.5974  -2.5971  -2.5933  -2.5932  -2.5925  -2.5923  -2.5807  -2.5804
    -2.5207  -2.5017  -2.4916  -2.4916  -2.4676  -2.4675  -2.3092  -2.2925
    -1.8407  -1.8404  -1.8078  -1.8074  -1.8046  -1.8042  -1.7604  -1.7600
    -1.7549  -1.7545  -1.7384  -1.7381  -1.0561  -1.0502  -0.9124  -0.9062
    -0.8802  -0.8801   0.5240   0.5262   0.5342   0.5365   0.9272   0.9277
     0.9388   0.9392   0.9522   0.9525   0.9527   0.9530   0.9775   0.9778
     0.9831   0.9833   1.0569   1.0571   1.0629   1.0632   1.1480   1.1483
     1.1519   1.1522   1.2001   1.2006   1.2038   1.2042   1.2825   1.2857
     1.4320   1.4352   1.4848   1.4856   1.5980   1.5994   1.6419   1.6423

          k =-0.0833 0.1443 0.0000 ( 31605 PWs)   bands (ev):

   -56.5759 -56.5759 -56.5715 -56.5715 -56.5709 -56.5709 -56.5699 -56.5699
   -56.5695 -56.5695 -56.5695 -56.5695 -56.5671 -56.5671 -56.5600 -56.5600
   -56.5588 -56.5588 -34.0737 -34.0736 -34.0571 -34.0562 -34.0557 -34.0554
   -34.0542 -34.0536 -34.0475 -34.0465 -34.0439 -34.0430 -34.0359 -34.0347
   -34.0343 -34.0332 -33.9816 -33.9816 -32.0506 -32.0491 -32.0284 -32.0277
   -32.0257 -32.0250 -32.0162 -32.0140 -32.0110 -32.0101 -32.0067 -32.0057
   -31.9894 -31.9890 -31.9880 -31.9876 -31.9545 -31.9518 -31.9437 -31.9415
   -31.9310 -31.9310 -31.9206 -31.9205 -31.9201 -31.9200 -31.9195 -31.9189
   -31.9185 -31.9180 -31.9156 -31.9151 -31.9150 -31.9145 -31.8484 -31.8484
   -15.0745 -15.0744 -14.3280 -14.3278 -14.3254 -14.3251 -14.1500 -14.1498
   -14.1468 -14.1467 -14.1435 -14.1432 -14.0081 -14.0079 -14.0042 -14.0040
   -13.8053 -13.8050 -13.8050 -13.8048 -13.7241 -13.7239 -13.7236 -13.7234
   -13.6620 -13.6618 -13.6617 -13.6615 -13.6362 -13.6322 -13.5992 -13.5952
   -13.4718 -13.4701 -13.4701 -13.4684  -6.3338  -6.3337  -6.1242  -6.1240
    -6.1222  -6.1220  -5.9155  -5.9088  -5.8749  -5.8746  -5.8739  -5.8737
    -5.7802  -5.7727  -5.6989  -5.6987  -5.6954  -5.6953  -5.6864  -5.6596
[...]
   -31.9211 -31.9209 -31.9146 -31.9112 -31.8930 -31.8920 -31.8917 -31.8907
   -14.8059 -14.8056 -14.8048 -14.8045 -14.4644 -14.4566 -14.2239 -14.2104
   -14.0231 -14.0230 -14.0229 -14.0228 -13.8650 -13.8643 -13.8455 -13.8452
   -13.8211 -13.8209 -13.7783 -13.7724 -13.7710 -13.7708 -13.7536 -13.7525
   -13.7476 -13.7473 -13.5772 -13.5769 -13.5757 -13.5754 -13.5608 -13.5604
   -13.5458 -13.5456 -13.5445 -13.5443  -6.4873  -6.4812  -6.1746  -6.1745
    -6.1475  -6.1474  -5.9842  -5.9839  -5.9828  -5.9825  -5.9600  -5.9599
    -5.9369  -5.9369  -5.6468  -5.6465  -5.6249  -5.6096  -5.6074  -5.6065
    -5.5891  -5.5846  -5.5489  -5.5487  -5.5158  -5.5155  -5.3976  -5.3974
    -5.0709  -5.0379  -4.9282  -4.9142  -4.9100  -4.9065  -4.8553  -4.8551
    -4.8437  -4.8434  -4.8407  -4.8404  -4.8305  -4.8303  -4.7482  -4.6540
    -4.2839  -4.2676  -4.2673  -4.2654  -4.2651  -4.2333  -4.1644  -4.1643
    -4.0991  -4.0989  -4.0753  -4.0511  -4.0510  -4.0034  -3.9941  -3.9940
    -3.9230  -3.8990  -3.7874  -3.7818  -3.7498  -3.7496  -3.7399  -3.7398
    -3.6613  -3.6612  -3.6200  -3.6199  -3.4494  -3.4493  -3.4158  -3.4157
    -3.2119  -3.1403  -3.0869  -3.0865  -3.0712  -3.0708  -3.0382  -3.0175
    -3.0070  -2.9977  -2.9973  -2.9775  -2.9423  -2.9421  -2.9232  -2.9227
    -2.9118  -2.9116  -2.8539  -2.8538  -2.7981  -2.7979  -2.5194  -2.4296
    -2.4068  -2.4042  -2.4041  -2.3990  -2.3891  -2.3170  -2.3168  -2.2693
    -1.6943  -1.6590  -1.6355  -1.5714  -1.5599  -1.5073  -1.5036  -1.5033
    -1.4545  -1.4542  -1.3913  -1.3910  -1.3435  -1.3433  -1.1909  -1.1906
    -1.1871  -1.1867   0.7269   0.7317   0.7372   0.7563   0.9339   0.9341
     0.9540   0.9542   0.9728   0.9730   0.9741   0.9743   0.9809   0.9811
     1.0042   1.0044   1.0486   1.0619   1.1220   1.1224   1.1374   1.1379
     1.1631   1.1678   1.1698   1.2309   1.2313   1.2378   1.2466   1.2528
     1.2629   1.2633   1.3544   1.3747   1.3749   1.4209   1.4287   1.4447

          k =-0.0833 0.5774 0.0000 ( 31578 PWs)   bands (ev):

   -56.5768 -56.5768 -56.5756 -56.5756 -56.5706 -56.5706 -56.5687 -56.5687
   -56.5679 -56.5679 -56.5630 -56.5630 -56.5628 -56.5628 -56.5621 -56.5621
   -56.5606 -56.5605 -34.0696 -34.0672 -34.0658 -34.0649 -34.0636 -34.0628
   -34.0542 -34.0531 -34.0515 -34.0504 -34.0408 -34.0337 -34.0276 -34.0229
   -34.0052 -34.0046 -34.0042 -34.0036 -32.0534 -32.0499 -32.0449 -32.0442
   -32.0380 -32.0373 -32.0263 -32.0257 -32.0185 -32.0180 -31.9945 -31.9866
   -31.9732 -31.9697 -31.9442 -31.9440 -31.9432 -31.9430 -31.9319 -31.9313
   -31.9299 -31.9296 -31.9292 -31.9280 -31.9273 -31.9263 -31.9228 -31.9221
   -31.9221 -31.9207 -31.9145 -31.9114 -31.8908 -31.8897 -31.8897 -31.8886
   -14.8082 -14.8079 -14.8073 -14.8070 -14.4445 -14.4363 -14.2438 -14.2308
   -14.0242 -14.0242 -14.0240 -14.0239 -13.8557 -13.8550 -13.8381 -13.8378
   -13.8136 -13.8134 -13.7790 -13.7756 -13.7753 -13.7741 -13.7628 -13.7618
   -13.7519 -13.7517 -13.5739 -13.5736 -13.5724 -13.5722 -13.5615 -13.5612
   -13.5476 -13.5474 -13.5463 -13.5460  -6.4911  -6.4861  -6.1572  -6.1570
    -6.1300  -6.1299  -5.9873  -5.9870  -5.9861  -5.9858  -5.9773  -5.9772
    -5.9535  -5.9535  -5.6390  -5.6388  -5.6117  -5.6045  -5.5962  -5.5952
    -5.5855  -5.5773  -5.5396  -5.5393  -5.5297  -5.5294  -5.4133  -5.4130
    -5.0730  -5.0415  -4.9544  -4.9385  -4.9112  -4.9083  -4.8537  -4.8535
    -4.8439  -4.8436  -4.8391  -4.8388  -4.8305  -4.8302  -4.7109  -4.6167
    -4.3214  -4.2646  -4.2614  -4.2611  -4.2596  -4.2593  -4.1594  -4.1593
    -4.1041  -4.1040  -4.0582  -4.0465  -4.0464  -3.9982  -3.9980  -3.9905
    -3.9182  -3.8981  -3.8140  -3.8111  -3.7476  -3.7475  -3.7393  -3.7392
    -3.6504  -3.6503  -3.6098  -3.6097  -3.4718  -3.4717  -3.4375  -3.4374
    -3.1899  -3.1181  -3.0846  -3.0842  -3.0717  -3.0713  -3.0450  -3.0167
    -3.0078  -2.9825  -2.9767  -2.9763  -2.9380  -2.9378  -2.9107  -2.9102
    -2.9054  -2.9052  -2.8638  -2.8636  -2.8100  -2.8098  -2.5073  -2.4081
    -2.4079  -2.4067  -2.4021  -2.3928  -2.3660  -2.3318  -2.3316  -2.2780
    -1.7044  -1.6567  -1.6530  -1.5738  -1.5714  -1.5178  -1.4985  -1.4982
    -1.4563  -1.4561  -1.3861  -1.3858  -1.3451  -1.3449  -1.1864  -1.1860
    -1.1832  -1.1828   0.7219   0.7286   0.7308   0.7488   0.9397   0.9400
     0.9567   0.9570   0.9746   0.9748   0.9759   0.9761   0.9800   0.9802
     1.0017   1.0019   1.0482   1.0592   1.1286   1.1290   1.1413   1.1417
     1.1699   1.1775   1.1819   1.2332   1.2367   1.2371   1.2420   1.2641
     1.2644   1.2645   1.3368   1.3809   1.3812   1.4044   1.4303   1.4537

          k =-0.0667 0.5774 0.0000 ( 31562 PWs)   bands (ev):

   -56.5768 -56.5768 -56.5756 -56.5756 -56.5699 -56.5699 -56.5688 -56.5688
   -56.5674 -56.5674 -56.5627 -56.5627 -56.5625 -56.5625 -56.5618 -56.5618
   -56.5603 -56.5603 -34.0685 -34.0666 -34.0651 -34.0643 -34.0635 -34.0627
   -34.0535 -34.0523 -34.0514 -34.0503 -34.0397 -34.0328 -34.0280 -34.0230
   -34.0050 -34.0046 -34.0040 -34.0035 -32.0526 -32.0498 -32.0440 -32.0432
   -32.0386 -32.0379 -32.0251 -32.0245 -32.0192 -32.0187 -31.9937 -31.9863
   -31.9744 -31.9703 -31.9442 -31.9440 -31.9432 -31.9430 -31.9312 -31.9306
   -31.9297 -31.9293 -31.9287 -31.9275 -31.9271 -31.9261 -31.9211 -31.9209
   -31.9205 -31.9185 -31.9147 -31.9117 -31.8903 -31.8894 -31.8893 -31.8884
   -14.8101 -14.8098 -14.8094 -14.8091 -14.4245 -14.4158 -14.2638 -14.2514
   -14.0252 -14.0251 -14.0249 -14.0248 -13.8464 -13.8457 -13.8307 -13.8305
   -13.8063 -13.8060 -13.7805 -13.7803 -13.7794 -13.7755 -13.7721 -13.7711
   -13.7567 -13.7564 -13.5707 -13.5704 -13.5692 -13.5690 -13.5620 -13.5618
   -13.5496 -13.5493 -13.5482 -13.5479  -6.4941  -6.4901  -6.1395  -6.1393
    -6.1124  -6.1122  -5.9948  -5.9947  -5.9898  -5.9894  -5.9888  -5.9885
    -5.9704  -5.9703  -5.6307  -5.6304  -5.6016  -5.6004  -5.5879  -5.5864
    -5.5827  -5.5679  -5.5430  -5.5427  -5.5295  -5.5292  -5.4283  -5.4280
    -5.0737  -5.0434  -4.9786  -4.9608  -4.9112  -4.9089  -4.8522  -4.8520
    -4.8440  -4.8437  -4.8376  -4.8373  -4.8304  -4.8302  -4.6716  -4.5786
    -4.3594  -4.2965  -4.2568  -4.2565  -4.2553  -4.2550  -4.1538  -4.1537
    -4.1093  -4.1092  -4.0414  -4.0413  -4.0409  -4.0024  -4.0023  -3.9779
    -3.9130  -3.8971  -3.8445  -3.8331  -3.7459  -3.7457  -3.7391  -3.7390
    -3.6377  -3.6377  -3.5978  -3.5978  -3.4936  -3.4935  -3.4587  -3.4587
    -3.1698  -3.0982  -3.0834  -3.0830  -3.0733  -3.0728  -3.0532  -3.0156
    -3.0084  -2.9890  -2.9569  -2.9565  -2.9329  -2.9327  -2.9012  -2.9008
    -2.8982  -2.8980  -2.8732  -2.8730  -2.8215  -2.8213  -2.4952  -2.4148
    -2.4101  -2.4099  -2.3789  -2.3776  -2.3470  -2.3464  -2.3462  -2.2872
    -1.7097  -1.6669  -1.6538  -1.5870  -1.5710  -1.5277  -1.4926  -1.4923
    -1.4587  -1.4584  -1.3802  -1.3799  -1.3471  -1.3469  -1.1839  -1.1835
    -1.1813  -1.1809   0.7176   0.7255   0.7265   0.7420   0.9441   0.9443
     0.9579   0.9581   0.9753   0.9755   0.9791   0.9791   0.9795   0.9798
     0.9994   0.9996   1.0493   1.0581   1.1339   1.1344   1.1438   1.1442
     1.1757   1.1843   1.1965   1.2262   1.2352   1.2408   1.2412   1.2634
     1.2637   1.2767   1.3225   1.3889   1.3893   1.3910   1.4324   1.4485

          k =-0.0500 0.5774 0.0000 ( 31546 PWs)   bands (ev):

   -56.5762 -56.5762 -56.5750 -56.5750 -56.5690 -56.5690 -56.5680 -56.5680
   -56.5674 -56.5674 -56.5628 -56.5628 -56.5626 -56.5626 -56.5619 -56.5618
   -56.5604 -56.5604 -34.0682 -34.0668 -34.0649 -34.0643 -34.0641 -34.0635
   -34.0532 -34.0522 -34.0520 -34.0511 -34.0366 -34.0300 -34.0283 -34.0231
   -34.0040 -34.0036 -34.0029 -34.0026 -32.0523 -32.0502 -32.0434 -32.0426
   -32.0403 -32.0396 -32.0244 -32.0238 -32.0208 -32.0202 -31.9897 -31.9829
   -31.9759 -31.9714 -31.9437 -31.9435 -31.9427 -31.9425 -31.9311 -31.9305
   -31.9298 -31.9294 -31.9285 -31.9274 -31.9273 -31.9263 -31.9208 -31.9207
   -31.9188 -31.9164 -31.9144 -31.9117 -31.8889 -31.8882 -31.8879 -31.8872
   -14.8116 -14.8113 -14.8110 -14.8107 -14.4044 -14.3954 -14.2837 -14.2718
   -14.0259 -14.0258 -14.0256 -14.0255 -13.8372 -13.8364 -13.8236 -13.8234
   -13.7992 -13.7989 -13.7858 -13.7856 -13.7813 -13.7804 -13.7797 -13.7767
   -13.7619 -13.7616 -13.5676 -13.5673 -13.5661 -13.5659 -13.5624 -13.5622
   -13.5517 -13.5515 -13.5503 -13.5501  -6.4964  -6.4933  -6.1216  -6.1215
    -6.0946  -6.0945  -6.0128  -6.0127  -5.9917  -5.9913  -5.9909  -5.9906
    -5.9878  -5.9877  -5.6219  -5.6216  -5.5990  -5.5910  -5.5875  -5.5808
    -5.5722  -5.5599  -5.5560  -5.5557  -5.5190  -5.5188  -5.4429  -5.4427
    -5.0718  -5.0425  -5.0004  -4.9807  -4.9116  -4.9099  -4.8508  -4.8506
    -4.8445  -4.8443  -4.8363  -4.8360  -4.8308  -4.8305  -4.6327  -4.5414
    -4.3975  -4.3291  -4.2528  -4.2525  -4.2516  -4.2513  -4.1483  -4.1481
    -4.1145  -4.1143  -4.0363  -4.0362  -4.0209  -4.0067  -4.0065  -3.9630
    -3.9088  -3.8968  -3.8738  -3.8546  -3.7441  -3.7439  -3.7390  -3.7389
    -3.6237  -3.6236  -3.5845  -3.5845  -3.5148  -3.5148  -3.4793  -3.4793
    -3.1503  -3.0818  -3.0813  -3.0791  -3.0742  -3.0737  -3.0626  -3.0146
    -3.0091  -2.9968  -2.9388  -2.9384  -2.9275  -2.9273  -2.8953  -2.8948
    -2.8907  -2.8905  -2.8824  -2.8822  -2.8328  -2.8326  -2.4837  -2.4233
    -2.4097  -2.4096  -2.3658  -2.3601  -2.3600  -2.3569  -2.3328  -2.2968
    -1.7143  -1.6810  -1.6480  -1.5996  -1.5679  -1.5371  -1.4878  -1.4875
    -1.4618  -1.4615  -1.3754  -1.3751  -1.3500  -1.3498  -1.1811  -1.1808
    -1.1792  -1.1788   0.7167   0.7209   0.7250   0.7384   0.9485   0.9487
     0.9589   0.9591   0.9759   0.9761   0.9789   0.9791   0.9817   0.9819
     0.9972   0.9974   1.0499   1.0565   1.1390   1.1395   1.1464   1.1469
     1.1831   1.1922   1.2125   1.2200   1.2292   1.2459   1.2463   1.2631
     1.2635   1.2905   1.3064   1.3759   1.3958   1.3961   1.4347   1.4425

          k =-0.0333 0.5774 0.0000 ( 31552 PWs)   bands (ev):

   -56.5767 -56.5767 -56.5755 -56.5755 -56.5683 -56.5683 -56.5680 -56.5680
   -56.5675 -56.5675 -56.5628 -56.5628 -56.5627 -56.5627 -56.5621 -56.5621
   -56.5606 -56.5606 -34.0685 -34.0675 -34.0651 -34.0646 -34.0643 -34.0638
   -34.0533 -34.0526 -34.0522 -34.0515 -34.0348 -34.0290 -34.0282 -34.0233
   -34.0045 -34.0042 -34.0034 -34.0032 -32.0526 -32.0512 -32.0428 -32.0421
   -32.0411 -32.0404 -32.0238 -32.0232 -32.0217 -32.0211 -31.9870 -31.9806
   -31.9774 -31.9725 -31.9431 -31.9430 -31.9421 -31.9420 -31.9308 -31.9306
   -31.9303 -31.9301 -31.9284 -31.9281 -31.9273 -31.9271 -31.9208 -31.9207
   -31.9179 -31.9155 -31.9142 -31.9116 -31.8903 -31.8899 -31.8893 -31.8888
   -14.8126 -14.8124 -14.8122 -14.8120 -14.3843 -14.3748 -14.3038 -14.2924
   -14.0263 -14.0263 -14.0261 -14.0260 -13.8278 -13.8270 -13.8167 -13.8164
   -13.7923 -13.7921 -13.7914 -13.7912 -13.7906 -13.7897 -13.7797 -13.7778
   -13.7673 -13.7671 -13.5646 -13.5644 -13.5632 -13.5630 -13.5626 -13.5626
   -13.5540 -13.5538 -13.5526 -13.5524  -6.4979  -6.4959  -6.1035  -6.1034
    -6.0767  -6.0766  -6.0309  -6.0308  -6.0054  -6.0053  -5.9930  -5.9927
    -5.9925  -5.9922  -5.6127  -5.6124  -5.5966  -5.5890  -5.5832  -5.5764
    -5.5684  -5.5681  -5.5635  -5.5551  -5.5082  -5.5079  -5.4571  -5.4568
    -5.0673  -5.0392  -5.0194  -4.9977  -4.9115  -4.9104  -4.8495  -4.8492
    -4.8452  -4.8449  -4.8350  -4.8347  -4.8313  -4.8310  -4.5936  -4.5047
    -4.4364  -4.3629  -4.2511  -4.2508  -4.2503  -4.2500  -4.1426  -4.1425
    -4.1199  -4.1198  -4.0313  -4.0311  -4.0113  -4.0111  -3.9996  -3.9470
    -3.9053  -3.9018  -3.8973  -3.8750  -3.7426  -3.7424  -3.7392  -3.7390
    -3.6083  -3.6083  -3.5698  -3.5697  -3.5353  -3.5353  -3.4992  -3.4992
    -3.1323  -3.0806  -3.0802  -3.0755  -3.0751  -3.0736  -3.0616  -3.0138
    -3.0101  -3.0065  -2.9227  -2.9222  -2.9216  -2.9214  -2.8927  -2.8922
    -2.8911  -2.8909  -2.8826  -2.8824  -2.8436  -2.8435  -2.4726  -2.4323
    -2.4069  -2.4068  -2.3730  -2.3729  -2.3531  -2.3405  -2.3239  -2.3070
    -1.7153  -1.6925  -1.6427  -1.6096  -1.5653  -1.5440  -1.4828  -1.4826
    -1.4651  -1.4649  -1.3704  -1.3702  -1.3532  -1.3530  -1.1815  -1.1812
    -1.1803  -1.1799   0.7149   0.7184   0.7256   0.7339   0.9504   0.9506
     0.9573   0.9575   0.9763   0.9765   0.9778   0.9780   0.9845   0.9847
     0.9943   0.9945   1.0481   1.0525   1.1432   1.1437   1.1481   1.1485
     1.1897   1.1991   1.2132   1.2226   1.2276   1.2496   1.2500   1.2612
     1.2615   1.2900   1.3039   1.3607   1.4035   1.4039   1.4356   1.4359

          k =-0.0167 0.5774 0.0000 ( 31560 PWs)   bands (ev):

   -56.5772 -56.5772 -56.5760 -56.5760 -56.5687 -56.5687 -56.5681 -56.5681
   -56.5676 -56.5676 -56.5626 -56.5626 -56.5625 -56.5625 -56.5621 -56.5621
   -56.5605 -56.5605 -34.0682 -34.0676 -34.0654 -34.0646 -34.0641 -34.0632
   -34.0535 -34.0524 -34.0520 -34.0509 -34.0345 -34.0302 -34.0282 -34.0244
   -34.0053 -34.0051 -34.0042 -34.0041 -32.0518 -32.0511 -32.0430 -32.0423
   -32.0411 -32.0403 -32.0239 -32.0233 -32.0217 -32.0211 -31.9856 -31.9805
   -31.9794 -31.9750 -31.9435 -31.9434 -31.9425 -31.9424 -31.9307 -31.9301
   -31.9300 -31.9296 -31.9282 -31.9275 -31.9271 -31.9265 -31.9213 -31.9213
   -31.9179 -31.9155 -31.9141 -31.9116 -31.8913 -31.8910 -31.8902 -31.8900
   -14.8132 -14.8130 -14.8129 -14.8127 -14.3642 -14.3543 -14.3239 -14.3130
   -14.0266 -14.0266 -14.0263 -14.0263 -13.8185 -13.8177 -13.8100 -13.8097
   -13.7999 -13.7990 -13.7974 -13.7971 -13.7856 -13.7854 -13.7795 -13.7785
   -13.7732 -13.7729 -13.5628 -13.5628 -13.5617 -13.5615 -13.5603 -13.5600
   -13.5565 -13.5562 -13.5551 -13.5548  -6.4983  -6.4973  -6.0856  -6.0855
    -6.0590  -6.0589  -6.0490  -6.0489  -6.0230  -6.0229  -5.9938  -5.9936
    -5.9935  -5.9933  -5.6024  -5.6022  -5.5942  -5.5904  -5.5801  -5.5798
    -5.5780  -5.5749  -5.5574  -5.5535  -5.4962  -5.4960  -5.4705  -5.4703
    -5.0601  -5.0361  -5.0333  -5.0125  -4.9121  -4.9115  -4.8483  -4.8480
    -4.8459  -4.8457  -4.8339  -4.8337  -4.8318  -4.8316  -4.5545  -4.4755
    -4.4686  -4.3973  -4.2502  -4.2499  -4.2498  -4.2495  -4.1365  -4.1364
    -4.1255  -4.1254  -4.0257  -4.0256  -4.0161  -4.0160  -3.9776  -3.9307
    -3.9285  -3.9023  -3.8983  -3.8946  -3.7413  -3.7412  -3.7396  -3.7395
    -3.5916  -3.5916  -3.5552  -3.5551  -3.5537  -3.5537  -3.5185  -3.5184
    -3.1159  -3.0863  -3.0802  -3.0798  -3.0777  -3.0772  -3.0457  -3.0180
    -3.0125  -3.0107  -2.9147  -2.9145  -2.9101  -2.9096  -2.8993  -2.8991
    -2.8948  -2.8943  -2.8736  -2.8734  -2.8539  -2.8537  -2.4620  -2.4417
    -2.4017  -2.4016  -2.3845  -2.3843  -2.3409  -2.3287  -2.3201  -2.3178
    -1.7157  -1.7041  -1.6373  -1.6189  -1.5627  -1.5501  -1.4776  -1.4773
    -1.4693  -1.4691  -1.3653  -1.3650  -1.3572  -1.3570  -1.1817  -1.1814
    -1.1810  -1.1806   0.7131   0.7162   0.7265   0.7293   0.9521   0.9523
     0.9554   0.9556   0.9769   0.9771   0.9772   0.9774   0.9876   0.9878
     0.9915   0.9917   1.0496   1.0518   1.1461   1.1466   1.1485   1.1490
     1.1944   1.2042   1.2061   1.2157   1.2431   1.2523   1.2527   1.2580
     1.2584   1.2730   1.3176   1.3449   1.4115   1.4119   1.4271   1.4275

          k = 0.0000 0.5774 0.0000 ( 31588 PWs)   bands (ev):

   -56.5767 -56.5767 -56.5755 -56.5755 -56.5697 -56.5697 -56.5692 -56.5692
   -56.5672 -56.5672 -56.5634 -56.5634 -56.5634 -56.5634 -56.5630 -56.5630
   -56.5613 -56.5613 -34.0673 -34.0673 -34.0658 -34.0658 -34.0652 -34.0652
   -34.0541 -34.0541 -34.0530 -34.0530 -34.0341 -34.0341 -34.0281 -34.0281
   -34.0043 -34.0043 -34.0032 -34.0032 -32.0507 -32.0507 -32.0431 -32.0431
   -32.0424 -32.0424 -32.0239 -32.0239 -32.0233 -32.0233 -31.9842 -31.9842
   -31.9784 -31.9784 -31.9425 -31.9425 -31.9415 -31.9415 -31.9316 -31.9316
   -31.9310 -31.9310 -31.9290 -31.9290 -31.9280 -31.9280 -31.9205 -31.9205
   -31.9180 -31.9180 -31.9154 -31.9154 -31.8906 -31.8906 -31.8895 -31.8895
   -14.8133 -14.8133 -14.8130 -14.8130 -14.3441 -14.3441 -14.3337 -14.3337
   -14.0266 -14.0266 -14.0264 -14.0264 -13.8093 -13.8093 -13.8084 -13.8084
   -13.8036 -13.8036 -13.8033 -13.8033 -13.7793 -13.7793 -13.7792 -13.7792
   -13.7789 -13.7789 -13.5628 -13.5628 -13.5591 -13.5591 -13.5588 -13.5588
   -13.5576 -13.5576 -13.5574 -13.5574  -6.4982  -6.4982  -6.0675  -6.0675
    -6.0674  -6.0674  -6.0411  -6.0411  -6.0410  -6.0410  -5.9936  -5.9936
    -5.9933  -5.9933  -5.5922  -5.5922  -5.5918  -5.5918  -5.5915  -5.5915
    -5.5757  -5.5757  -5.5546  -5.5546  -5.4839  -5.4839  -5.4837  -5.4837
    -5.0499  -5.0499  -5.0247  -5.0247  -4.9118  -4.9118  -4.8472  -4.8472
    -4.8470  -4.8470  -4.8330  -4.8330  -4.8327  -4.8327  -4.5153  -4.5153
    -4.4329  -4.4329  -4.2492  -4.2492  -4.2489  -4.2489  -4.1313  -4.1313
    -4.1312  -4.1312  -4.0212  -4.0212  -4.0211  -4.0211  -3.9542  -3.9542
    -3.9136  -3.9136  -3.8997  -3.8997  -3.7400  -3.7400  -3.7397  -3.7397
    -3.5741  -3.5741  -3.5740  -3.5740  -3.5368  -3.5368  -3.5367  -3.5367
    -3.1007  -3.1007  -3.0791  -3.0791  -3.0787  -3.0787  -3.0313  -3.0313
    -3.0115  -3.0115  -2.9076  -2.9076  -2.9074  -2.9074  -2.9005  -2.9005
    -2.9000  -2.9000  -2.8643  -2.8643  -2.8642  -2.8642  -2.4518  -2.4518
    -2.3941  -2.3941  -2.3939  -2.3939  -2.3292  -2.3292  -2.3216  -2.3216
    -1.7110  -1.7110  -1.6308  -1.6308  -1.5591  -1.5591  -1.4741  -1.4741
    -1.4738  -1.4738  -1.3618  -1.3618  -1.3616  -1.3616  -1.1801  -1.1801
    -1.1797  -1.1797   0.7125   0.7125   0.7258   0.7258   0.9546   0.9546
     0.9549   0.9549   0.9761   0.9761   0.9763   0.9763   0.9887   0.9887
     0.9889   0.9889   1.0536   1.0536   1.1492   1.1492   1.1496   1.1496
     1.1990   1.1990   1.2087   1.2087   1.2551   1.2551   1.2555   1.2555
     1.2566   1.2566   1.3298   1.3298   1.4178   1.4178   1.4182   1.4182

     Writing output data file ./outdir/nbse2.save/
 
     init_run     :      3.84s CPU      4.64s WALL (       1 calls)
     electrons    :   6806.03s CPU   7094.73s WALL (       1 calls)

     Called by init_run:
     wfcinit      :      0.00s CPU      0.00s WALL (       1 calls)
     potinit      :      0.56s CPU      0.67s WALL (       1 calls)
     hinit0       :      1.32s CPU      1.40s WALL (       1 calls)

     Called by electrons:
     c_bands      :   6806.03s CPU   7094.70s WALL (       1 calls)
     v_of_rho     :      0.14s CPU      0.15s WALL (       1 calls)
     newd         :      0.95s CPU      1.42s WALL (       1 calls)
     PAW_pot      :      0.23s CPU      0.26s WALL (       1 calls)

     Called by c_bands:
     init_us_2    :      1.03s CPU      1.04s WALL (      61 calls)
     cegterg      :   6581.76s CPU   6857.88s WALL (     315 calls)

     Called by *egterg:
     cdiaghg      :    838.94s CPU    840.69s WALL (    5973 calls)
     h_psi        :   3594.45s CPU   3853.26s WALL (    6288 calls)
     s_psi        :    476.53s CPU    477.82s WALL (    6288 calls)
     g_psi        :      8.02s CPU      8.14s WALL (    5912 calls)

     Called by h_psi:
     h_psi:calbec :    385.20s CPU    400.81s WALL (    6288 calls)
     vloc_psi     :   2802.24s CPU   3043.58s WALL (    6288 calls)
     add_vuspsi   :    373.87s CPU    375.42s WALL (    6288 calls)

     General routines
     calbec       :    385.09s CPU    400.75s WALL (    6288 calls)
     fft          :      0.16s CPU      0.21s WALL (      19 calls)
     ffts         :      0.03s CPU      0.07s WALL (       4 calls)
     fftw         :   1556.80s CPU   1743.73s WALL ( 2208864 calls)
     interpolate  :      0.10s CPU      0.15s WALL (       4 calls)
     davcio       :      0.08s CPU      1.96s WALL (     122 calls)
 
     Parallel routines
     fft_scatt_xy :    208.58s CPU    215.78s WALL ( 2208887 calls)
     fft_scatt_yz :    640.96s CPU    801.82s WALL ( 2208887 calls)
 
     PWSCF        :      1h53m CPU      2h 0m WALL

 
   This run was terminated on:  15:14:15   6Sep2020            

=------------------------------------------------------------------------------=
   JOB DONE.
=------------------------------------------------------------------------------=
