
     Program BANDS v.6.6 starts on  6Sep2020 at 15:36:41 

     This program is part of the open-source Quantum ESPRESSO suite
     for quantum simulation of materials; please cite
         "P. Giannozzi et al., J. Phys.:Condens. Matter 21 395502 (2009);
         "P. Giannozzi et al., J. Phys.:Condens. Matter 29 465901 (2017);
          URL http://www.quantum-espresso.org", 
     in publications or presentations arising from this work. More details at
     http://www.quantum-espresso.org/quote

     Parallel version (MPI), running on    44 processors

     MPI processes distributed on     1 nodes
     R & G space division:  proc/nbgrp/npool/nimage =      44
     Fft bands division:     nmany     =       1

     Reading xml data from directory:

     ./outdir/nbse2.save/
     file Se.rel-pbe-n-kjpaw_psl.0.2.UPF: wavefunction(s)  4S 4P renormalized
     file Nb.rel-pbe-spn-kjpaw_psl.1.0.0.UPF: wavefunction(s)  4S 4P 4P 4D renormalized

     IMPORTANT: XC functional enforced from input :
     Exchange-correlation= PBE
                           (   1   4   3   4   0   0   0)
     Any further DFT definition will be discarded
     Please, verify this is what you really want

 
     Parallelization info
     --------------------
     sticks:   dense  smooth     PW     G-vecs:    dense   smooth      PW
     Min         141      61     16                20035     5743     810
     Max         142      62     17                20043     5752     817
     Sum        6205    2713    745               881733   252933   35857
 

     negative rho (up, down):  3.001E-02 0.000E+00
     Reading collected, re-writing distributed wavefunctions
     high-symmetry point:  0.0000 0.5774 0.0000   x coordinate   0.0000
     high-symmetry point:  0.0000 0.0000 0.0000   x coordinate   0.5774
     high-symmetry point: -0.3333 0.5774 0.0000   x coordinate   1.2440
     high-symmetry point:  0.0000 0.5774 0.0000   x coordinate   1.5774

     Plottable bands (eV) written to file nbse2.bands.dat.gnu
     Bands written to file nbse2.bands.dat

 **************************************************************************

                    xk=(   0.00000,   0.57735,   0.00000  )

     double point group C_2v (mm2) 
     there are  5 classes and  1 irreducible representations
     the character table:

       E     -E     C2    s_v   s_v'
                   -C2   -s_v  -s_v'
G_5    2.00 -2.00  0.00  0.00  0.00

     the symmetry operations in each class and the name of the first element:

     E             1
                                                                 
     -E           -1
                                                                 
      C2  -C2      2   -2
                                                                 
      s_v -s_v     3   -3
                                                                 
      s_v'-s_v'    4   -4
                                                                 

     Band symmetry, C_2v (mm2)  double point group:

     e(  1 -  2) =    -56.57667  eV     2   --> G_5  D_5       
     e(  3 -  4) =    -56.57546  eV     2   --> G_5  D_5       
     e(  5 -  6) =    -56.56969  eV     2   --> G_5  D_5       
     e(  7 -  8) =    -56.56924  eV     2   --> G_5  D_5       
     e(  9 - 10) =    -56.56723  eV     2   --> G_5  D_5       
     e( 11 - 14) =    -56.56338  eV     4   -->   2 G_5  D_5       
     e( 15 - 16) =    -56.56296  eV     2   --> G_5  D_5       
     e( 17 - 18) =    -56.56132  eV     2   --> G_5  D_5       
     e( 19 - 20) =    -34.06731  eV     2   --> G_5  D_5       
     e( 21 - 22) =    -34.06577  eV     2   --> G_5  D_5       
     e( 23 - 24) =    -34.06522  eV     2   --> G_5  D_5       
     e( 25 - 26) =    -34.05411  eV     2   --> G_5  D_5       
     e( 27 - 28) =    -34.05300  eV     2   --> G_5  D_5       
     e( 29 - 30) =    -34.03409  eV     2   --> G_5  D_5       
     e( 31 - 32) =    -34.02809  eV     2   --> G_5  D_5       
     e( 33 - 34) =    -34.00426  eV     2   --> G_5  D_5       
     e( 35 - 36) =    -34.00322  eV     2   --> G_5  D_5       
     e( 37 - 38) =    -32.05068  eV     2   --> G_5  D_5       
     e( 39 - 40) =    -32.04314  eV     2   --> G_5  D_5       
     e( 41 - 42) =    -32.04242  eV     2   --> G_5  D_5       
     e( 43 - 44) =    -32.02386  eV     2   --> G_5  D_5       
     e( 45 - 46) =    -32.02326  eV     2   --> G_5  D_5       
     e( 47 - 48) =    -31.98418  eV     2   --> G_5  D_5       
     e( 49 - 50) =    -31.97838  eV     2   --> G_5  D_5       
     e( 51 - 52) =    -31.94245  eV     2   --> G_5  D_5       
     e( 53 - 54) =    -31.94147  eV     2   --> G_5  D_5       
     e( 55 - 56) =    -31.93156  eV     2   --> G_5  D_5       
     e( 57 - 58) =    -31.93105  eV     2   --> G_5  D_5       
     e( 59 - 60) =    -31.92904  eV     2   --> G_5  D_5       
     e( 61 - 62) =    -31.92798  eV     2   --> G_5  D_5       
     e( 63 - 64) =    -31.92050  eV     2   --> G_5  D_5       
     e( 65 - 66) =    -31.91804  eV     2   --> G_5  D_5       
     e( 67 - 68) =    -31.91537  eV     2   --> G_5  D_5       
     e( 69 - 70) =    -31.89057  eV     2   --> G_5  D_5       
     e( 71 - 72) =    -31.88954  eV     2   --> G_5  D_5       
     e( 73 - 74) =    -14.81331  eV     2   --> G_5  D_5       
     e( 75 - 76) =    -14.81302  eV     2   --> G_5  D_5       
     e( 77 - 78) =    -14.34412  eV     2   --> G_5  D_5       
     e( 79 - 80) =    -14.33370  eV     2   --> G_5  D_5       
     e( 81 - 82) =    -14.02665  eV     2   --> G_5  D_5       
     e( 83 - 84) =    -14.02638  eV     2   --> G_5  D_5       
     e( 85 - 86) =    -13.80929  eV     2   --> G_5  D_5       
     e( 87 - 88) =    -13.80845  eV     2   --> G_5  D_5       
     e( 89 - 90) =    -13.80359  eV     2   --> G_5  D_5       
     e( 91 - 92) =    -13.80334  eV     2   --> G_5  D_5       
     e( 93 - 96) =    -13.77931  eV     4   -->   2 G_5  D_5       
     e( 97 - 98) =    -13.77888  eV     2   --> G_5  D_5       
     e( 99 -100) =    -13.56282  eV     2   --> G_5  D_5       
     e(101 -102) =    -13.55909  eV     2   --> G_5  D_5       
     e(103 -104) =    -13.55883  eV     2   --> G_5  D_5       
     e(105 -106) =    -13.55764  eV     2   --> G_5  D_5       
     e(107 -108) =    -13.55739  eV     2   --> G_5  D_5       
     e(109 -110) =     -6.49817  eV     2   --> G_5  D_5       
     e(111 -112) =     -6.06746  eV     2   --> G_5  D_5       
     e(113 -114) =     -6.06736  eV     2   --> G_5  D_5       
     e(115 -118) =     -6.04113  eV     4   -->   2 G_5  D_5       
     e(119 -120) =     -5.99363  eV     2   --> G_5  D_5       
     e(121 -122) =     -5.99330  eV     2   --> G_5  D_5       
     e(123 -124) =     -5.59220  eV     2   --> G_5  D_5       
     e(125 -126) =     -5.59184  eV     2   --> G_5  D_5       
     e(127 -128) =     -5.59153  eV     2   --> G_5  D_5       
     e(129 -130) =     -5.57572  eV     2   --> G_5  D_5       
     e(131 -132) =     -5.55456  eV     2   --> G_5  D_5       
     e(133 -134) =     -5.48394  eV     2   --> G_5  D_5       
     e(135 -136) =     -5.48368  eV     2   --> G_5  D_5       
     e(137 -138) =     -5.04988  eV     2   --> G_5  D_5       
     e(139 -140) =     -5.02465  eV     2   --> G_5  D_5       
     e(141 -142) =     -4.91180  eV     2   --> G_5  D_5       
     e(143 -144) =     -4.84724  eV     2   --> G_5  D_5       
     e(145 -146) =     -4.84698  eV     2   --> G_5  D_5       
     e(147 -148) =     -4.83301  eV     2   --> G_5  D_5       
     e(149 -150) =     -4.83274  eV     2   --> G_5  D_5       
     e(151 -152) =     -4.51527  eV     2   --> G_5  D_5       
     e(153 -154) =     -4.43290  eV     2   --> G_5  D_5       
     e(155 -156) =     -4.24917  eV     2   --> G_5  D_5       
     e(157 -158) =     -4.24887  eV     2   --> G_5  D_5       
     e(159 -160) =     -4.13127  eV     2   --> G_5  D_5       
     e(161 -162) =     -4.13116  eV     2   --> G_5  D_5       
     e(163 -164) =     -4.02117  eV     2   --> G_5  D_5       
     e(165 -166) =     -4.02105  eV     2   --> G_5  D_5       
     e(167 -168) =     -3.95422  eV     2   --> G_5  D_5       
     e(169 -170) =     -3.91360  eV     2   --> G_5  D_5       
     e(171 -172) =     -3.89968  eV     2   --> G_5  D_5       
     e(173 -174) =     -3.73997  eV     2   --> G_5  D_5       
     e(175 -176) =     -3.73968  eV     2   --> G_5  D_5       
     e(177 -180) =     -3.57407  eV     4   -->   2 G_5  D_5       
     e(181 -184) =     -3.53678  eV     4   -->   2 G_5  D_5       
     e(185 -186) =     -3.10071  eV     2   --> G_5  D_5       
     e(187 -188) =     -3.07914  eV     2   --> G_5  D_5       
     e(189 -190) =     -3.07868  eV     2   --> G_5  D_5       
     e(191 -192) =     -3.03134  eV     2   --> G_5  D_5       
     e(193 -194) =     -3.01149  eV     2   --> G_5  D_5       
     e(195 -196) =     -2.90758  eV     2   --> G_5  D_5       
     e(197 -198) =     -2.90739  eV     2   --> G_5  D_5       
     e(199 -200) =     -2.90048  eV     2   --> G_5  D_5       
     e(201 -202) =     -2.89998  eV     2   --> G_5  D_5       
     e(203 -204) =     -2.86434  eV     2   --> G_5  D_5       
     e(205 -206) =     -2.86417  eV     2   --> G_5  D_5       
     e(207 -208) =     -2.45184  eV     2   --> G_5  D_5       
     e(209 -210) =     -2.39408  eV     2   --> G_5  D_5       
     e(211 -212) =     -2.39392  eV     2   --> G_5  D_5       
     e(213 -214) =     -2.32924  eV     2   --> G_5  D_5       
     e(215 -216) =     -2.32161  eV     2   --> G_5  D_5       
     e(217 -218) =     -1.71098  eV     2   --> G_5  D_5       
     e(219 -220) =     -1.63080  eV     2   --> G_5  D_5       
     e(221 -222) =     -1.55909  eV     2   --> G_5  D_5       
     e(223 -224) =     -1.47407  eV     2   --> G_5  D_5       
     e(225 -226) =     -1.47380  eV     2   --> G_5  D_5       
     e(227 -228) =     -1.36181  eV     2   --> G_5  D_5       
     e(229 -230) =     -1.36157  eV     2   --> G_5  D_5       
     e(231 -232) =     -1.18010  eV     2   --> G_5  D_5       
     e(233 -234) =     -1.17968  eV     2   --> G_5  D_5       
     e(235 -236) =      0.71251  eV     2   --> G_5  D_5       
     e(237 -238) =      0.72580  eV     2   --> G_5  D_5       
     e(239 -240) =      0.95457  eV     2   --> G_5  D_5       
     e(241 -242) =      0.95487  eV     2   --> G_5  D_5       
     e(243 -244) =      0.97612  eV     2   --> G_5  D_5       
     e(245 -246) =      0.97633  eV     2   --> G_5  D_5       
     e(247 -248) =      0.98867  eV     2   --> G_5  D_5       
     e(249 -250) =      0.98887  eV     2   --> G_5  D_5       
     e(251 -252) =      1.05364  eV     2   --> G_5  D_5       
     e(253 -254) =      1.14919  eV     2   --> G_5  D_5       
     e(255 -256) =      1.14963  eV     2   --> G_5  D_5       
     e(257 -258) =      1.19899  eV     2   --> G_5  D_5       
     e(259 -260) =      1.20871  eV     2   --> G_5  D_5       
     e(261 -262) =      1.25513  eV     2   --> G_5  D_5       
     e(263 -264) =      1.25554  eV     2   --> G_5  D_5       
     e(265 -266) =      1.25662  eV     2   --> G_5  D_5       
     e(267 -268) =      1.32977  eV     2   --> G_5  D_5       
     e(269 -270) =      1.41783  eV     2   --> G_5  D_5       
     e(271 -272) =      1.41819  eV     2   --> G_5  D_5       

 **************************************************************************

 **************************************************************************

                    xk=(   0.00000,   0.54848,   0.00000  )

     Band symmetry, C_2v (mm2)  double point group:

     e(  1 -  2) =    -56.57629  eV     2   --> G_5  D_5       
     e(  3 -  4) =    -56.57502  eV     2   --> G_5  D_5       
     e(  5 -  6) =    -56.56874  eV     2   --> G_5  D_5       
     e(  7 -  8) =    -56.56842  eV     2   --> G_5  D_5       
     e(  9 - 10) =    -56.56789  eV     2   --> G_5  D_5       
     e( 11 - 12) =    -56.56359  eV     2   --> G_5  D_5       
     e( 13 - 14) =    -56.56271  eV     2   --> G_5  D_5       
     e( 15 - 16) =    -56.56204  eV     2   --> G_5  D_5       
     e( 17 - 18) =    -56.56048  eV     2   --> G_5  D_5       
     e( 19 - 20) =    -34.06928  eV     2   --> G_5  D_5       
     e( 21 - 22) =    -34.06523  eV     2   --> G_5  D_5       
     e( 23 - 24) =    -34.06429  eV     2   --> G_5  D_5       
     e( 25 - 26) =    -34.05333  eV     2   --> G_5  D_5       
     e( 27 - 28) =    -34.05195  eV     2   --> G_5  D_5       
     e( 29 - 30) =    -34.03214  eV     2   --> G_5  D_5       
     e( 31 - 32) =    -34.02617  eV     2   --> G_5  D_5       
     e( 33 - 34) =    -34.00509  eV     2   --> G_5  D_5       
     e( 35 - 36) =    -34.00117  eV     2   --> G_5  D_5       
     e( 37 - 38) =    -32.05305  eV     2   --> G_5  D_5       
     e( 39 - 40) =    -32.04259  eV     2   --> G_5  D_5       
     e( 41 - 42) =    -32.04138  eV     2   --> G_5  D_5       
     e( 43 - 44) =    -32.02361  eV     2   --> G_5  D_5       
     e( 45 - 46) =    -32.02190  eV     2   --> G_5  D_5       
     e( 47 - 48) =    -31.98294  eV     2   --> G_5  D_5       
     e( 49 - 50) =    -31.97732  eV     2   --> G_5  D_5       
     e( 51 - 52) =    -31.94351  eV     2   --> G_5  D_5       
     e( 53 - 54) =    -31.94035  eV     2   --> G_5  D_5       
     e( 55 - 56) =    -31.93153  eV     2   --> G_5  D_5       
     e( 57 - 58) =    -31.92968  eV     2   --> G_5  D_5       
     e( 59 - 60) =    -31.92837  eV     2   --> G_5  D_5       
     e( 61 - 62) =    -31.92709  eV     2   --> G_5  D_5       
     e( 63 - 64) =    -31.92177  eV     2   --> G_5  D_5       
     e( 65 - 66) =    -31.91595  eV     2   --> G_5  D_5       
     e( 67 - 68) =    -31.91315  eV     2   --> G_5  D_5       
     e( 69 - 70) =    -31.89210  eV     2   --> G_5  D_5       
     e( 71 - 72) =    -31.88592  eV     2   --> G_5  D_5       
     e( 73 - 74) =    -14.83964  eV     2   --> G_5  D_5       
     e( 75 - 76) =    -14.78576  eV     2   --> G_5  D_5       
     e( 77 - 78) =    -14.34359  eV     2   --> G_5  D_5       
     e( 79 - 80) =    -14.33320  eV     2   --> G_5  D_5       
     e( 81 - 82) =    -14.03872  eV     2   --> G_5  D_5       
     e( 83 - 84) =    -14.01406  eV     2   --> G_5  D_5       
     e( 85 - 86) =    -13.82039  eV     2   --> G_5  D_5       
     e( 87 - 88) =    -13.80907  eV     2   --> G_5  D_5       
     e( 89 - 90) =    -13.80823  eV     2   --> G_5  D_5       
     e( 91 - 92) =    -13.79733  eV     2   --> G_5  D_5       
     e( 93 - 94) =    -13.78695  eV     2   --> G_5  D_5       
     e( 95 - 96) =    -13.78039  eV     2   --> G_5  D_5       
     e( 97 - 98) =    -13.76145  eV     2   --> G_5  D_5       
     e( 99 -100) =    -13.56753  eV     2   --> G_5  D_5       
     e(101 -102) =    -13.56616  eV     2   --> G_5  D_5       
     e(103 -104) =    -13.56339  eV     2   --> G_5  D_5       
     e(105 -106) =    -13.55052  eV     2   --> G_5  D_5       
     e(107 -108) =    -13.54905  eV     2   --> G_5  D_5       
     e(109 -110) =     -6.49696  eV     2   --> G_5  D_5       
     e(111 -112) =     -6.07827  eV     2   --> G_5  D_5       
     e(113 -114) =     -6.05458  eV     2   --> G_5  D_5       
     e(115 -116) =     -6.05383  eV     2   --> G_5  D_5       
     e(117 -118) =     -6.02645  eV     2   --> G_5  D_5       
     e(119 -120) =     -6.02474  eV     2   --> G_5  D_5       
     e(121 -122) =     -5.96052  eV     2   --> G_5  D_5       
     e(123 -124) =     -5.62082  eV     2   --> G_5  D_5       
     e(125 -126) =     -5.59077  eV     2   --> G_5  D_5       
     e(127 -128) =     -5.57604  eV     2   --> G_5  D_5       
     e(129 -130) =     -5.56170  eV     2   --> G_5  D_5       
     e(131 -132) =     -5.55501  eV     2   --> G_5  D_5       
     e(133 -134) =     -5.50945  eV     2   --> G_5  D_5       
     e(135 -136) =     -5.45761  eV     2   --> G_5  D_5       
     e(137 -138) =     -5.05016  eV     2   --> G_5  D_5       
     e(139 -140) =     -5.02505  eV     2   --> G_5  D_5       
     e(141 -142) =     -4.91238  eV     2   --> G_5  D_5       
     e(143 -144) =     -4.85655  eV     2   --> G_5  D_5       
     e(145 -146) =     -4.84337  eV     2   --> G_5  D_5       
     e(147 -148) =     -4.83788  eV     2   --> G_5  D_5       
     e(149 -150) =     -4.82261  eV     2   --> G_5  D_5       
     e(151 -152) =     -4.51783  eV     2   --> G_5  D_5       
     e(153 -154) =     -4.43642  eV     2   --> G_5  D_5       
     e(155 -156) =     -4.31781  eV     2   --> G_5  D_5       
     e(157 -157) =     -4.17897  eV     1   -->   ?
     e(158 -158) =     -4.17886  eV     1   -->   ?
     e(159 -160) =     -4.14079  eV     2   --> G_5  D_5       
     e(161 -162) =     -4.11914  eV     2   --> G_5  D_5       
     e(163 -164) =     -4.02462  eV     2   --> G_5  D_5       
     e(165 -166) =     -4.01531  eV     2   --> G_5  D_5       
     e(167 -168) =     -3.95030  eV     2   --> G_5  D_5       
     e(169 -170) =     -3.91058  eV     2   --> G_5  D_5       
     e(171 -172) =     -3.89942  eV     2   --> G_5  D_5       
     e(173 -173) =     -3.79879  eV     1   -->   ?
     e(174 -174) =     -3.79855  eV     1   -->   ?
     e(175 -175) =     -3.68306  eV     1   -->   ?
     e(176 -176) =     -3.68280  eV     1   -->   ?
     e(177 -178) =     -3.65226  eV     2   --> G_5  D_5       
     e(179 -180) =     -3.61808  eV     2   --> G_5  D_5       
     e(181 -182) =     -3.49648  eV     2   --> G_5  D_5       
     e(183 -184) =     -3.45643  eV     2   --> G_5  D_5       
     e(185 -185) =     -3.09941  eV     1   -->   ?
     e(186 -186) =     -3.09929  eV     1   -->   ?
     e(187 -188) =     -3.09804  eV     2   --> G_5  D_5       
     e(189 -189) =     -3.05572  eV     1   -->   ?
     e(190 -190) =     -3.05553  eV     1   -->   ?
     e(191 -192) =     -3.02887  eV     2   --> G_5  D_5       
     e(193 -194) =     -3.01165  eV     2   --> G_5  D_5       
     e(195 -195) =     -2.93908  eV     1   -->   ?
     e(196 -196) =     -2.93887  eV     1   -->   ?
     e(197 -198) =     -2.92314  eV     2   --> G_5  D_5       
     e(199 -200) =     -2.89211  eV     2   --> G_5  D_5       
     e(201 -202) =     -2.88183  eV     2   --> G_5  D_5       
     e(203 -203) =     -2.86252  eV     1   -->   ?
     e(204 -204) =     -2.86240  eV     1   -->   ?
     e(205 -206) =     -2.84734  eV     2   --> G_5  D_5       
     e(207 -208) =     -2.45376  eV     2   --> G_5  D_5       
     e(209 -210) =     -2.41381  eV     2   --> G_5  D_5       
     e(211 -212) =     -2.37566  eV     2   --> G_5  D_5       
     e(213 -214) =     -2.33155  eV     2   --> G_5  D_5       
     e(215 -216) =     -2.32239  eV     2   --> G_5  D_5       
     e(217 -218) =     -1.71265  eV     2   --> G_5  D_5       
     e(219 -220) =     -1.62852  eV     2   --> G_5  D_5       
     e(221 -222) =     -1.55689  eV     2   --> G_5  D_5       
     e(223 -224) =     -1.50040  eV     2   --> G_5  D_5       
     e(225 -226) =     -1.44626  eV     2   --> G_5  D_5       
     e(227 -228) =     -1.38977  eV     2   --> G_5  D_5       
     e(229 -230) =     -1.33249  eV     2   --> G_5  D_5       
     e(231 -231) =     -1.21438  eV     1   -->   ?
     e(232 -232) =     -1.21421  eV     1   -->   ?
     e(233 -233) =     -1.14610  eV     1   -->   ?
     e(234 -234) =     -1.14592  eV     1   -->   ?
     e(235 -236) =      0.71623  eV     2   --> G_5  D_5       
     e(237 -238) =      0.72946  eV     2   --> G_5  D_5       
     e(239 -239) =      0.94023  eV     1   -->   ?
     e(240 -240) =      0.94039  eV     1   -->   ?
     e(241 -242) =      0.96069  eV     2   --> G_5  D_5       
     e(243 -244) =      0.97476  eV     2   --> G_5  D_5       
     e(245 -245) =      0.97557  eV     1   -->   ?
     e(246 -246) =      0.97574  eV     1   -->   ?
     e(247 -248) =      0.98876  eV     2   --> G_5  D_5       
     e(249 -250) =      0.99881  eV     2   --> G_5  D_5       
     e(251 -252) =      1.04867  eV     2   --> G_5  D_5       
     e(253 -254) =      1.14267  eV     2   --> G_5  D_5       
     e(255 -256) =      1.15596  eV     2   --> G_5  D_5       
     e(257 -258) =      1.19980  eV     2   --> G_5  D_5       
     e(259 -260) =      1.20960  eV     2   --> G_5  D_5       
     e(261 -261) =      1.23767  eV     1   -->   ?
     e(262 -262) =      1.23780  eV     1   -->   ?
     e(263 -264) =      1.25966  eV     2   --> G_5  D_5       
     e(265 -265) =      1.27798  eV     1   -->   ?
     e(266 -266) =      1.27809  eV     1   -->   ?
     e(267 -268) =      1.33250  eV     2   --> G_5  D_5       
     e(269 -270) =      1.39072  eV     2   --> G_5  D_5       
     e(271 -272) =      1.43887  eV     2   --> G_5  D_5       

 **************************************************************************

 **************************************************************************

                    xk=(   0.00000,   0.51962,   0.00000  )

     Band symmetry, C_2v (mm2)  double point group:

     e(  1 -  2) =    -56.57724  eV     2   --> G_5  D_5       
     e(  3 -  4) =    -56.57603  eV     2   --> G_5  D_5       
     e(  5 -  6) =    -56.56915  eV     2   --> G_5  D_5       
     e(  7 -  8) =    -56.56877  eV     2   --> G_5  D_5       
     e(  9 - 10) =    -56.56773  eV     2   --> G_5  D_5       
     e( 11 - 12) =    -56.56407  eV     2   --> G_5  D_5       
     e( 13 - 14) =    -56.56301  eV     2   --> G_5  D_5       
     e( 15 - 16) =    -56.56068  eV     2   --> G_5  D_5       
     e( 17 - 18) =    -56.55937  eV     2   --> G_5  D_5       
     e( 19 - 20) =    -34.06773  eV     2   --> G_5  D_5       
     e( 21 - 22) =    -34.06441  eV     2   --> G_5  D_5       
     e( 23 - 24) =    -34.06354  eV     2   --> G_5  D_5       
     e( 25 - 26) =    -34.05307  eV     2   --> G_5  D_5       
     e( 27 - 28) =    -34.05072  eV     2   --> G_5  D_5       
     e( 29 - 30) =    -34.03334  eV     2   --> G_5  D_5       
     e( 31 - 32) =    -34.02742  eV     2   --> G_5  D_5       
     e( 33 - 34) =    -34.00911  eV     2   --> G_5  D_5       
     e( 35 - 36) =    -34.00051  eV     2   --> G_5  D_5       
     e( 37 - 38) =    -32.05116  eV     2   --> G_5  D_5       
     e( 39 - 40) =    -32.04208  eV     2   --> G_5  D_5       
     e( 41 - 42) =    -32.04035  eV     2   --> G_5  D_5       
     e( 43 - 44) =    -32.02373  eV     2   --> G_5  D_5       
     e( 45 - 46) =    -32.02020  eV     2   --> G_5  D_5       
     e( 47 - 48) =    -31.98340  eV     2   --> G_5  D_5       
     e( 49 - 50) =    -31.97780  eV     2   --> G_5  D_5       
     e( 51 - 52) =    -31.94714  eV     2   --> G_5  D_5       
     e( 53 - 54) =    -31.93977  eV     2   --> G_5  D_5       
     e( 55 - 56) =    -31.93175  eV     2   --> G_5  D_5       
     e( 57 - 58) =    -31.92878  eV     2   --> G_5  D_5       
     e( 59 - 60) =    -31.92782  eV     2   --> G_5  D_5       
     e( 61 - 62) =    -31.92643  eV     2   --> G_5  D_5       
     e( 63 - 64) =    -31.92113  eV     2   --> G_5  D_5       
     e( 65 - 66) =    -31.91769  eV     2   --> G_5  D_5       
     e( 67 - 68) =    -31.91495  eV     2   --> G_5  D_5       
     e( 69 - 70) =    -31.89661  eV     2   --> G_5  D_5       
     e( 71 - 72) =    -31.88411  eV     2   --> G_5  D_5       
     e( 73 - 74) =    -14.86513  eV     2   --> G_5  D_5       
     e( 75 - 76) =    -14.75743  eV     2   --> G_5  D_5       
     e( 77 - 78) =    -14.34211  eV     2   --> G_5  D_5       
     e( 79 - 80) =    -14.33179  eV     2   --> G_5  D_5       
     e( 81 - 82) =    -14.05041  eV     2   --> G_5  D_5       
     e( 83 - 84) =    -14.00112  eV     2   --> G_5  D_5       
     e( 85 - 86) =    -13.83773  eV     2   --> G_5  D_5       
     e( 87 - 88) =    -13.81592  eV     2   --> G_5  D_5       
     e( 89 - 90) =    -13.80846  eV     2   --> G_5  D_5       
     e( 91 - 92) =    -13.80763  eV     2   --> G_5  D_5       
     e( 93 - 94) =    -13.78366  eV     2   --> G_5  D_5       
     e( 95 - 96) =    -13.77093  eV     2   --> G_5  D_5       
     e( 97 - 98) =    -13.74427  eV     2   --> G_5  D_5       
     e( 99 -100) =    -13.57625  eV     2   --> G_5  D_5       
     e(101 -102) =    -13.57493  eV     2   --> G_5  D_5       
     e(103 -104) =    -13.56481  eV     2   --> G_5  D_5       
     e(105 -106) =    -13.54236  eV     2   --> G_5  D_5       
     e(107 -108) =    -13.54085  eV     2   --> G_5  D_5       
     e(109 -110) =     -6.49124  eV     2   --> G_5  D_5       
     e(111 -112) =     -6.08694  eV     2   --> G_5  D_5       
     e(113 -114) =     -6.06569  eV     2   --> G_5  D_5       
     e(115 -116) =     -6.05825  eV     2   --> G_5  D_5       
     e(117 -118) =     -6.03779  eV     2   --> G_5  D_5       
     e(119 -120) =     -6.00570  eV     2   --> G_5  D_5       
     e(121 -122) =     -5.92742  eV     2   --> G_5  D_5       
     e(123 -124) =     -5.64947  eV     2   --> G_5  D_5       
     e(125 -126) =     -5.58565  eV     2   --> G_5  D_5       
     e(127 -128) =     -5.57896  eV     2   --> G_5  D_5       
     e(129 -130) =     -5.55833  eV     2   --> G_5  D_5       
     e(131 -132) =     -5.53498  eV     2   --> G_5  D_5       
     e(133 -134) =     -5.53154  eV     2   --> G_5  D_5       
     e(135 -136) =     -5.43158  eV     2   --> G_5  D_5       
     e(137 -138) =     -5.05159  eV     2   --> G_5  D_5       
     e(139 -140) =     -5.02684  eV     2   --> G_5  D_5       
     e(141 -142) =     -4.91277  eV     2   --> G_5  D_5       
     e(143 -144) =     -4.86637  eV     2   --> G_5  D_5       
     e(145 -146) =     -4.85426  eV     2   --> G_5  D_5       
     e(147 -148) =     -4.82900  eV     2   --> G_5  D_5       
     e(149 -150) =     -4.81272  eV     2   --> G_5  D_5       
     e(151 -152) =     -4.52617  eV     2   --> G_5  D_5       
     e(153 -154) =     -4.44743  eV     2   --> G_5  D_5       
     e(155 -156) =     -4.38903  eV     2   --> G_5  D_5       
     e(157 -158) =     -4.14814  eV     2   --> G_5  D_5       
     e(159 -159) =     -4.11129  eV     1   -->   ?
     e(160 -160) =     -4.11117  eV     1   -->   ?
     e(161 -162) =     -4.10459  eV     2   --> G_5  D_5       
     e(163 -164) =     -4.02611  eV     2   --> G_5  D_5       
     e(165 -166) =     -4.00718  eV     2   --> G_5  D_5       
     e(167 -168) =     -3.93948  eV     2   --> G_5  D_5       
     e(169 -170) =     -3.90225  eV     2   --> G_5  D_5       
     e(171 -172) =     -3.89686  eV     2   --> G_5  D_5       
     e(173 -173) =     -3.85948  eV     1   -->   ?
     e(174 -174) =     -3.85924  eV     1   -->   ?
     e(175 -176) =     -3.73093  eV     2   --> G_5  D_5       
     e(177 -178) =     -3.70017  eV     2   --> G_5  D_5       
     e(179 -179) =     -3.62757  eV     1   -->   ?
     e(180 -180) =     -3.62731  eV     1   -->   ?
     e(181 -182) =     -3.42041  eV     2   --> G_5  D_5       
     e(183 -184) =     -3.37794  eV     2   --> G_5  D_5       
     e(185 -185) =     -3.12077  eV     1   -->   ?
     e(186 -186) =     -3.12067  eV     1   -->   ?
     e(187 -188) =     -3.09150  eV     2   --> G_5  D_5       
     e(189 -189) =     -3.03367  eV     1   -->   ?
     e(190 -190) =     -3.03328  eV     1   -->   ?
     e(191 -192) =     -3.02262  eV     2   --> G_5  D_5       
     e(193 -194) =     -3.01055  eV     2   --> G_5  D_5       
     e(195 -195) =     -2.97763  eV     1   -->   ?
     e(196 -196) =     -2.97722  eV     1   -->   ?
     e(197 -198) =     -2.93986  eV     2   --> G_5  D_5       
     e(199 -200) =     -2.90084  eV     2   --> G_5  D_5       
     e(201 -202) =     -2.87764  eV     2   --> G_5  D_5       
     e(203 -204) =     -2.83181  eV     2   --> G_5  D_5       
     e(205 -205) =     -2.82532  eV     1   -->   ?
     e(206 -206) =     -2.82522  eV     1   -->   ?
     e(207 -208) =     -2.45985  eV     2   --> G_5  D_5       
     e(209 -210) =     -2.43474  eV     2   --> G_5  D_5       
     e(211 -212) =     -2.35883  eV     2   --> G_5  D_5       
     e(213 -214) =     -2.33873  eV     2   --> G_5  D_5       
     e(215 -216) =     -2.32380  eV     2   --> G_5  D_5       
     e(217 -218) =     -1.71564  eV     2   --> G_5  D_5       
     e(219 -220) =     -1.63210  eV     2   --> G_5  D_5       
     e(221 -222) =     -1.56069  eV     2   --> G_5  D_5       
     e(223 -224) =     -1.52668  eV     2   --> G_5  D_5       
     e(225 -226) =     -1.41778  eV     2   --> G_5  D_5       
     e(227 -228) =     -1.41760  eV     2   --> G_5  D_5       
     e(229 -230) =     -1.30242  eV     2   --> G_5  D_5       
     e(231 -231) =     -1.25328  eV     1   -->   ?
     e(232 -232) =     -1.25311  eV     1   -->   ?
     e(233 -233) =     -1.11497  eV     1   -->   ?
     e(234 -234) =     -1.11479  eV     1   -->   ?
     e(235 -236) =      0.71849  eV     2   --> G_5  D_5       
     e(237 -238) =      0.73164  eV     2   --> G_5  D_5       
     e(239 -239) =      0.92554  eV     1   -->   ?
     e(240 -240) =      0.92570  eV     1   -->   ?
     e(241 -242) =      0.94284  eV     2   --> G_5  D_5       
     e(243 -244) =      0.95774  eV     2   --> G_5  D_5       
     e(245 -245) =      0.99688  eV     1   -->   ?
     e(246 -246) =      0.99704  eV     1   -->   ?
     e(247 -248) =      0.99785  eV     2   --> G_5  D_5       
     e(249 -250) =      1.00445  eV     2   --> G_5  D_5       
     e(251 -252) =      1.04969  eV     2   --> G_5  D_5       
     e(253 -254) =      1.13903  eV     2   --> G_5  D_5       
     e(255 -256) =      1.15894  eV     2   --> G_5  D_5       
     e(257 -258) =      1.19835  eV     2   --> G_5  D_5       
     e(259 -260) =      1.20830  eV     2   --> G_5  D_5       
     e(261 -261) =      1.22375  eV     1   -->   ?
     e(262 -262) =      1.22389  eV     1   -->   ?
     e(263 -264) =      1.26551  eV     2   --> G_5  D_5       
     e(265 -265) =      1.29854  eV     1   -->   ?
     e(266 -266) =      1.29865  eV     1   -->   ?
     e(267 -268) =      1.33740  eV     2   --> G_5  D_5       
     e(269 -270) =      1.36658  eV     2   --> G_5  D_5       
     e(271 -272) =      1.43704  eV     2   --> G_5  D_5       

 **************************************************************************

 **************************************************************************

                    xk=(   0.00000,   0.49075,   0.00000  )

     Band symmetry, C_2v (mm2)  double point group:

     e(  1 -  2) =    -56.57694  eV     2   --> G_5  D_5       
     e(  3 -  4) =    -56.57486  eV     2   --> G_5  D_5       
     e(  5 -  6) =    -56.56947  eV     2   --> G_5  D_5       
     e(  7 -  8) =    -56.56901  eV     2   --> G_5  D_5       
     e(  9 - 10) =    -56.56708  eV     2   --> G_5  D_5       
     e( 11 - 12) =    -56.56439  eV     2   --> G_5  D_5       
     e( 13 - 14) =    -56.56325  eV     2   --> G_5  D_5       
     e( 15 - 16) =    -56.56110  eV     2   --> G_5  D_5       
     e( 17 - 18) =    -56.55976  eV     2   --> G_5  D_5       
     e( 19 - 20) =    -34.06667  eV     2   --> G_5  D_5       
     e( 21 - 22) =    -34.06549  eV     2   --> G_5  D_5       
     e( 23 - 24) =    -34.06281  eV     2   --> G_5  D_5       
     e( 25 - 26) =    -34.05293  eV     2   --> G_5  D_5       
     e( 27 - 28) =    -34.05179  eV     2   --> G_5  D_5       
     e( 29 - 30) =    -34.03398  eV     2   --> G_5  D_5       
     e( 31 - 32) =    -34.02813  eV     2   --> G_5  D_5       
     e( 33 - 34) =    -34.00913  eV     2   --> G_5  D_5       
     e( 35 - 36) =    -33.99856  eV     2   --> G_5  D_5       
     e( 37 - 38) =    -32.04947  eV     2   --> G_5  D_5       
     e( 39 - 40) =    -32.04408  eV     2   --> G_5  D_5       
     e( 41 - 42) =    -32.03890  eV     2   --> G_5  D_5       
     e( 43 - 44) =    -32.02338  eV     2   --> G_5  D_5       
     e( 45 - 46) =    -32.02089  eV     2   --> G_5  D_5       
     e( 47 - 48) =    -31.98430  eV     2   --> G_5  D_5       
     e( 49 - 50) =    -31.97881  eV     2   --> G_5  D_5       
     e( 51 - 52) =    -31.94769  eV     2   --> G_5  D_5       
     e( 53 - 54) =    -31.93892  eV     2   --> G_5  D_5       
     e( 55 - 56) =    -31.93407  eV     2   --> G_5  D_5       
     e( 57 - 58) =    -31.92993  eV     2   --> G_5  D_5       
     e( 59 - 60) =    -31.92712  eV     2   --> G_5  D_5       
     e( 61 - 62) =    -31.92578  eV     2   --> G_5  D_5       
     e( 63 - 64) =    -31.92009  eV     2   --> G_5  D_5       
     e( 65 - 66) =    -31.91791  eV     2   --> G_5  D_5       
     e( 67 - 68) =    -31.91516  eV     2   --> G_5  D_5       
     e( 69 - 70) =    -31.89748  eV     2   --> G_5  D_5       
     e( 71 - 72) =    -31.88031  eV     2   --> G_5  D_5       
     e( 73 - 74) =    -14.88940  eV     2   --> G_5  D_5       
     e( 75 - 76) =    -14.72802  eV     2   --> G_5  D_5       
     e( 77 - 78) =    -14.33969  eV     2   --> G_5  D_5       
     e( 79 - 80) =    -14.32952  eV     2   --> G_5  D_5       
     e( 81 - 82) =    -14.06160  eV     2   --> G_5  D_5       
     e( 83 - 84) =    -13.98764  eV     2   --> G_5  D_5       
     e( 85 - 86) =    -13.85545  eV     2   --> G_5  D_5       
     e( 87 - 88) =    -13.83491  eV     2   --> G_5  D_5       
     e( 89 - 90) =    -13.80744  eV     2   --> G_5  D_5       
     e( 91 - 92) =    -13.80662  eV     2   --> G_5  D_5       
     e( 93 - 94) =    -13.78915  eV     2   --> G_5  D_5       
     e( 95 - 96) =    -13.75561  eV     2   --> G_5  D_5       
     e( 97 - 98) =    -13.72781  eV     2   --> G_5  D_5       
     e( 99 -100) =    -13.58509  eV     2   --> G_5  D_5       
     e(101 -102) =    -13.58383  eV     2   --> G_5  D_5       
     e(103 -104) =    -13.56715  eV     2   --> G_5  D_5       
     e(105 -106) =    -13.53451  eV     2   --> G_5  D_5       
     e(107 -108) =    -13.53297  eV     2   --> G_5  D_5       
     e(109 -110) =     -6.48230  eV     2   --> G_5  D_5       
     e(111 -112) =     -6.09302  eV     2   --> G_5  D_5       
     e(113 -114) =     -6.08922  eV     2   --> G_5  D_5       
     e(115 -116) =     -6.07409  eV     2   --> G_5  D_5       
     e(117 -118) =     -6.01980  eV     2   --> G_5  D_5       
     e(119 -120) =     -5.98451  eV     2   --> G_5  D_5       
     e(121 -122) =     -5.89379  eV     2   --> G_5  D_5       
     e(123 -124) =     -5.67768  eV     2   --> G_5  D_5       
     e(125 -126) =     -5.58359  eV     2   --> G_5  D_5       
     e(127 -128) =     -5.57704  eV     2   --> G_5  D_5       
     e(129 -130) =     -5.56362  eV     2   --> G_5  D_5       
     e(131 -132) =     -5.56040  eV     2   --> G_5  D_5       
     e(133 -134) =     -5.50100  eV     2   --> G_5  D_5       
     e(135 -136) =     -5.40547  eV     2   --> G_5  D_5       
     e(137 -138) =     -5.05408  eV     2   --> G_5  D_5       
     e(139 -140) =     -5.02993  eV     2   --> G_5  D_5       
     e(141 -142) =     -4.91356  eV     2   --> G_5  D_5       
     e(143 -144) =     -4.87656  eV     2   --> G_5  D_5       
     e(145 -146) =     -4.86550  eV     2   --> G_5  D_5       
     e(147 -148) =     -4.82128  eV     2   --> G_5  D_5       
     e(149 -150) =     -4.80410  eV     2   --> G_5  D_5       
     e(151 -152) =     -4.53859  eV     2   --> G_5  D_5       
     e(153 -154) =     -4.46390  eV     2   --> G_5  D_5       
     e(155 -156) =     -4.45852  eV     2   --> G_5  D_5       
     e(157 -158) =     -4.15418  eV     2   --> G_5  D_5       
     e(159 -160) =     -4.08764  eV     2   --> G_5  D_5       
     e(161 -161) =     -4.04337  eV     1   -->   ?
     e(162 -162) =     -4.04323  eV     1   -->   ?
     e(163 -164) =     -4.02660  eV     2   --> G_5  D_5       
     e(165 -166) =     -3.99683  eV     2   --> G_5  D_5       
     e(167 -168) =     -3.92253  eV     2   --> G_5  D_5       
     e(169 -169) =     -3.91954  eV     1   -->   ?
     e(170 -170) =     -3.91931  eV     1   -->   ?
     e(171 -172) =     -3.89275  eV     2   --> G_5  D_5       
     e(173 -174) =     -3.88911  eV     2   --> G_5  D_5       
     e(175 -176) =     -3.81015  eV     2   --> G_5  D_5       
     e(177 -178) =     -3.78321  eV     2   --> G_5  D_5       
     e(179 -179) =     -3.57343  eV     1   -->   ?
     e(180 -180) =     -3.57317  eV     1   -->   ?
     e(181 -182) =     -3.34621  eV     2   --> G_5  D_5       
     e(183 -184) =     -3.30179  eV     2   --> G_5  D_5       
     e(185 -186) =     -3.14073  eV     2   --> G_5  D_5       
     e(187 -188) =     -3.08047  eV     2   --> G_5  D_5       
     e(189 -189) =     -3.02067  eV     1   -->   ?
     e(190 -190) =     -3.01929  eV     1   -->   ?
     e(191 -192) =     -3.01219  eV     2   --> G_5  D_5       
     e(193 -194) =     -3.00848  eV     2   --> G_5  D_5       
     e(195 -195) =     -3.00536  eV     1   -->   ?
     e(196 -196) =     -3.00395  eV     1   -->   ?
     e(197 -198) =     -2.95757  eV     2   --> G_5  D_5       
     e(199 -200) =     -2.92110  eV     2   --> G_5  D_5       
     e(201 -202) =     -2.86367  eV     2   --> G_5  D_5       
     e(203 -204) =     -2.81734  eV     2   --> G_5  D_5       
     e(205 -206) =     -2.78886  eV     2   --> G_5  D_5       
     e(207 -208) =     -2.46955  eV     2   --> G_5  D_5       
     e(209 -210) =     -2.45623  eV     2   --> G_5  D_5       
     e(211 -212) =     -2.35025  eV     2   --> G_5  D_5       
     e(213 -214) =     -2.34390  eV     2   --> G_5  D_5       
     e(215 -216) =     -2.32624  eV     2   --> G_5  D_5       
     e(217 -218) =     -1.72046  eV     2   --> G_5  D_5       
     e(219 -220) =     -1.63662  eV     2   --> G_5  D_5       
     e(221 -222) =     -1.56560  eV     2   --> G_5  D_5       
     e(223 -224) =     -1.55258  eV     2   --> G_5  D_5       
     e(225 -226) =     -1.44534  eV     2   --> G_5  D_5       
     e(227 -228) =     -1.39084  eV     2   --> G_5  D_5       
     e(229 -229) =     -1.29091  eV     1   -->   ?
     e(230 -230) =     -1.29075  eV     1   -->   ?
     e(231 -232) =     -1.27391  eV     2   --> G_5  D_5       
     e(233 -233) =     -1.08534  eV     1   -->   ?
     e(234 -234) =     -1.08516  eV     1   -->   ?
     e(235 -236) =      0.72348  eV     2   --> G_5  D_5       
     e(237 -238) =      0.73643  eV     2   --> G_5  D_5       
     e(239 -239) =      0.91704  eV     1   -->   ?
     e(240 -240) =      0.91721  eV     1   -->   ?
     e(241 -242) =      0.92004  eV     2   --> G_5  D_5       
     e(243 -244) =      0.93510  eV     2   --> G_5  D_5       
     e(245 -246) =      1.00292  eV     2   --> G_5  D_5       
     e(247 -248) =      1.00562  eV     2   --> G_5  D_5       
     e(249 -249) =      1.02325  eV     1   -->   ?
     e(250 -250) =      1.02341  eV     1   -->   ?
     e(251 -252) =      1.04860  eV     2   --> G_5  D_5       
     e(253 -254) =      1.13937  eV     2   --> G_5  D_5       
     e(255 -256) =      1.15907  eV     2   --> G_5  D_5       
     e(257 -258) =      1.19527  eV     2   --> G_5  D_5       
     e(259 -260) =      1.20566  eV     2   --> G_5  D_5       
     e(261 -261) =      1.22484  eV     1   -->   ?
     e(262 -262) =      1.22497  eV     1   -->   ?
     e(263 -264) =      1.27834  eV     2   --> G_5  D_5       
     e(265 -265) =      1.32101  eV     1   -->   ?
     e(266 -266) =      1.32112  eV     1   -->   ?
     e(267 -268) =      1.34594  eV     2   --> G_5  D_5       
     e(269 -270) =      1.34847  eV     2   --> G_5  D_5       
     e(271 -272) =      1.40968  eV     2   --> G_5  D_5       

 **************************************************************************

 **************************************************************************

                    xk=(   0.00000,   0.46188,   0.00000  )

     Band symmetry, C_2v (mm2)  double point group:

     e(  1 -  2) =    -56.57802  eV     2   --> G_5  D_5       
     e(  3 -  4) =    -56.57391  eV     2   --> G_5  D_5       
     e(  5 -  6) =    -56.57118  eV     2   --> G_5  D_5       
     e(  7 -  8) =    -56.57061  eV     2   --> G_5  D_5       
     e(  9 - 10) =    -56.56716  eV     2   --> G_5  D_5       
     e( 11 - 12) =    -56.56630  eV     2   --> G_5  D_5       
     e( 13 - 14) =    -56.56480  eV     2   --> G_5  D_5       
     e( 15 - 16) =    -56.56066  eV     2   --> G_5  D_5       
     e( 17 - 18) =    -56.55945  eV     2   --> G_5  D_5       
     e( 19 - 20) =    -34.06686  eV     2   --> G_5  D_5       
     e( 21 - 22) =    -34.06508  eV     2   --> G_5  D_5       
     e( 23 - 24) =    -34.06412  eV     2   --> G_5  D_5       
     e( 25 - 26) =    -34.05466  eV     2   --> G_5  D_5       
     e( 27 - 28) =    -34.05211  eV     2   --> G_5  D_5       
     e( 29 - 30) =    -34.03682  eV     2   --> G_5  D_5       
     e( 31 - 32) =    -34.03109  eV     2   --> G_5  D_5       
     e( 33 - 34) =    -34.00977  eV     2   --> G_5  D_5       
     e( 35 - 36) =    -33.99848  eV     2   --> G_5  D_5       
     e( 37 - 38) =    -32.04804  eV     2   --> G_5  D_5       
     e( 39 - 40) =    -32.04454  eV     2   --> G_5  D_5       
     e( 41 - 42) =    -32.03923  eV     2   --> G_5  D_5       
     e( 43 - 44) =    -32.02459  eV     2   --> G_5  D_5       
     e( 45 - 46) =    -32.02025  eV     2   --> G_5  D_5       
     e( 47 - 48) =    -31.98685  eV     2   --> G_5  D_5       
     e( 49 - 50) =    -31.98129  eV     2   --> G_5  D_5       
     e( 51 - 52) =    -31.94888  eV     2   --> G_5  D_5       
     e( 53 - 54) =    -31.93942  eV     2   --> G_5  D_5       
     e( 55 - 56) =    -31.93553  eV     2   --> G_5  D_5       
     e( 57 - 58) =    -31.93094  eV     2   --> G_5  D_5       
     e( 59 - 60) =    -31.92866  eV     2   --> G_5  D_5       
     e( 61 - 62) =    -31.92740  eV     2   --> G_5  D_5       
     e( 63 - 64) =    -31.92043  eV     2   --> G_5  D_5       
     e( 65 - 66) =    -31.91997  eV     2   --> G_5  D_5       
     e( 67 - 68) =    -31.91776  eV     2   --> G_5  D_5       
     e( 69 - 70) =    -31.89875  eV     2   --> G_5  D_5       
     e( 71 - 72) =    -31.87840  eV     2   --> G_5  D_5       
     e( 73 - 74) =    -14.91263  eV     2   --> G_5  D_5       
     e( 75 - 76) =    -14.69791  eV     2   --> G_5  D_5       
     e( 77 - 78) =    -14.33643  eV     2   --> G_5  D_5       
     e( 79 - 80) =    -14.32644  eV     2   --> G_5  D_5       
     e( 81 - 82) =    -14.07229  eV     2   --> G_5  D_5       
     e( 83 - 84) =    -13.97390  eV     2   --> G_5  D_5       
     e( 85 - 86) =    -13.87341  eV     2   --> G_5  D_5       
     e( 87 - 88) =    -13.85415  eV     2   --> G_5  D_5       
     e( 89 - 90) =    -13.80613  eV     2   --> G_5  D_5       
     e( 91 - 92) =    -13.80532  eV     2   --> G_5  D_5       
     e( 93 - 94) =    -13.79689  eV     2   --> G_5  D_5       
     e( 95 - 96) =    -13.74082  eV     2   --> G_5  D_5       
     e( 97 - 98) =    -13.71192  eV     2   --> G_5  D_5       
     e( 99 -100) =    -13.59402  eV     2   --> G_5  D_5       
     e(101 -102) =    -13.59281  eV     2   --> G_5  D_5       
     e(103 -104) =    -13.57053  eV     2   --> G_5  D_5       
     e(105 -106) =    -13.52693  eV     2   --> G_5  D_5       
     e(107 -108) =    -13.52535  eV     2   --> G_5  D_5       
     e(109 -110) =     -6.46967  eV     2   --> G_5  D_5       
     e(111 -112) =     -6.11911  eV     2   --> G_5  D_5       
     e(113 -114) =     -6.09700  eV     2   --> G_5  D_5       
     e(115 -116) =     -6.08025  eV     2   --> G_5  D_5       
     e(117 -118) =     -5.99919  eV     2   --> G_5  D_5       
     e(119 -120) =     -5.96045  eV     2   --> G_5  D_5       
     e(121 -122) =     -5.86047  eV     2   --> G_5  D_5       
     e(123 -124) =     -5.70498  eV     2   --> G_5  D_5       
     e(125 -126) =     -5.59078  eV     2   --> G_5  D_5       
     e(127 -128) =     -5.58524  eV     2   --> G_5  D_5       
     e(129 -130) =     -5.57173  eV     2   --> G_5  D_5       
     e(131 -132) =     -5.56545  eV     2   --> G_5  D_5       
     e(133 -134) =     -5.47027  eV     2   --> G_5  D_5       
     e(135 -136) =     -5.37947  eV     2   --> G_5  D_5       
     e(137 -138) =     -5.05749  eV     2   --> G_5  D_5       
     e(139 -140) =     -5.03416  eV     2   --> G_5  D_5       
     e(141 -142) =     -4.91483  eV     2   --> G_5  D_5       
     e(143 -144) =     -4.88754  eV     2   --> G_5  D_5       
     e(145 -146) =     -4.87753  eV     2   --> G_5  D_5       
     e(147 -148) =     -4.81348  eV     2   --> G_5  D_5       
     e(149 -150) =     -4.79542  eV     2   --> G_5  D_5       
     e(151 -152) =     -4.55555  eV     2   --> G_5  D_5       
     e(153 -154) =     -4.52734  eV     2   --> G_5  D_5       
     e(155 -156) =     -4.48565  eV     2   --> G_5  D_5       
     e(157 -158) =     -4.15853  eV     2   --> G_5  D_5       
     e(159 -160) =     -4.06929  eV     2   --> G_5  D_5       
     e(161 -162) =     -4.02596  eV     2   --> G_5  D_5       
     e(163 -164) =     -3.98527  eV     2   --> G_5  D_5       
     e(165 -165) =     -3.98084  eV     1   -->   ?
     e(166 -166) =     -3.98062  eV     1   -->   ?
     e(167 -167) =     -3.97824  eV     1   -->   ?
     e(168 -168) =     -3.97808  eV     1   -->   ?
     e(169 -170) =     -3.90117  eV     2   --> G_5  D_5       
     e(171 -172) =     -3.88850  eV     2   --> G_5  D_5       
     e(173 -174) =     -3.88758  eV     2   --> G_5  D_5       
     e(175 -176) =     -3.87221  eV     2   --> G_5  D_5       
     e(177 -178) =     -3.86609  eV     2   --> G_5  D_5       
     e(179 -179) =     -3.52208  eV     1   -->   ?
     e(180 -180) =     -3.52181  eV     1   -->   ?
     e(181 -182) =     -3.27532  eV     2   --> G_5  D_5       
     e(183 -184) =     -3.22955  eV     2   --> G_5  D_5       
     e(185 -185) =     -3.15896  eV     1   -->   ?
     e(186 -186) =     -3.15886  eV     1   -->   ?
     e(187 -188) =     -3.06563  eV     2   --> G_5  D_5       
     e(189 -189) =     -3.05734  eV     1   -->   ?
     e(190 -190) =     -3.05709  eV     1   -->   ?
     e(191 -192) =     -3.00649  eV     2   --> G_5  D_5       
     e(193 -194) =     -2.99813  eV     2   --> G_5  D_5       
     e(195 -195) =     -2.98190  eV     1   -->   ?
     e(196 -196) =     -2.98161  eV     1   -->   ?
     e(197 -198) =     -2.97561  eV     2   --> G_5  D_5       
     e(199 -200) =     -2.94199  eV     2   --> G_5  D_5       
     e(201 -202) =     -2.84992  eV     2   --> G_5  D_5       
     e(203 -204) =     -2.80383  eV     2   --> G_5  D_5       
     e(205 -206) =     -2.75357  eV     2   --> G_5  D_5       
     e(207 -208) =     -2.48301  eV     2   --> G_5  D_5       
     e(209 -210) =     -2.47821  eV     2   --> G_5  D_5       
     e(211 -212) =     -2.36618  eV     2   --> G_5  D_5       
     e(213 -214) =     -2.33144  eV     2   --> G_5  D_5       
     e(215 -216) =     -2.32978  eV     2   --> G_5  D_5       
     e(217 -218) =     -1.72742  eV     2   --> G_5  D_5       
     e(219 -220) =     -1.64503  eV     2   --> G_5  D_5       
     e(221 -222) =     -1.58061  eV     2   --> G_5  D_5       
     e(223 -224) =     -1.57450  eV     2   --> G_5  D_5       
     e(225 -226) =     -1.47524  eV     2   --> G_5  D_5       
     e(227 -228) =     -1.36135  eV     2   --> G_5  D_5       
     e(229 -229) =     -1.32882  eV     1   -->   ?
     e(230 -230) =     -1.32866  eV     1   -->   ?
     e(231 -232) =     -1.24282  eV     2   --> G_5  D_5       
     e(233 -233) =     -1.05851  eV     1   -->   ?
     e(234 -234) =     -1.05833  eV     1   -->   ?
     e(235 -236) =      0.72807  eV     2   --> G_5  D_5       
     e(237 -238) =      0.74084  eV     2   --> G_5  D_5       
     e(239 -240) =      0.89393  eV     2   --> G_5  D_5       
     e(241 -242) =      0.90861  eV     2   --> G_5  D_5       
     e(243 -243) =      0.91149  eV     1   -->   ?
     e(244 -244) =      0.91165  eV     1   -->   ?
     e(245 -246) =      0.99843  eV     2   --> G_5  D_5       
     e(247 -248) =      1.00062  eV     2   --> G_5  D_5       
     e(249 -250) =      1.04546  eV     2   --> G_5  D_5       
     e(251 -251) =      1.05043  eV     1   -->   ?
     e(252 -252) =      1.05059  eV     1   -->   ?
     e(253 -254) =      1.14001  eV     2   --> G_5  D_5       
     e(255 -256) =      1.15064  eV     2   --> G_5  D_5       
     e(257 -258) =      1.19141  eV     2   --> G_5  D_5       
     e(259 -260) =      1.20208  eV     2   --> G_5  D_5       
     e(261 -261) =      1.23877  eV     1   -->   ?
     e(262 -262) =      1.23888  eV     1   -->   ?
     e(263 -264) =      1.29382  eV     2   --> G_5  D_5       
     e(265 -266) =      1.32807  eV     2   --> G_5  D_5       
     e(267 -267) =      1.34302  eV     1   -->   ?
     e(268 -268) =      1.34313  eV     1   -->   ?
     e(269 -270) =      1.36183  eV     2   --> G_5  D_5       
     e(271 -272) =      1.38348  eV     2   --> G_5  D_5       

 **************************************************************************

 **************************************************************************

                    xk=(   0.00000,   0.43301,   0.00000  )

     Band symmetry, C_2v (mm2)  double point group:

     e(  1 -  2) =    -56.57826  eV     2   --> G_5  D_5       
     e(  3 -  4) =    -56.57389  eV     2   --> G_5  D_5       
     e(  5 -  6) =    -56.57002  eV     2   --> G_5  D_5       
     e(  7 -  8) =    -56.56953  eV     2   --> G_5  D_5       
     e(  9 - 10) =    -56.56638  eV     2   --> G_5  D_5       
     e( 11 - 12) =    -56.56534  eV     2   --> G_5  D_5       
     e( 13 - 14) =    -56.56389  eV     2   --> G_5  D_5       
     e( 15 - 16) =    -56.56106  eV     2   --> G_5  D_5       
     e( 17 - 18) =    -56.55977  eV     2   --> G_5  D_5       
     e( 19 - 20) =    -34.06838  eV     2   --> G_5  D_5       
     e( 21 - 22) =    -34.06331  eV     2   --> G_5  D_5       
     e( 23 - 24) =    -34.06126  eV     2   --> G_5  D_5       
     e( 25 - 26) =    -34.05372  eV     2   --> G_5  D_5       
     e( 27 - 28) =    -34.05194  eV     2   --> G_5  D_5       
     e( 29 - 30) =    -34.03526  eV     2   --> G_5  D_5       
     e( 31 - 32) =    -34.02968  eV     2   --> G_5  D_5       
     e( 33 - 34) =    -34.01223  eV     2   --> G_5  D_5       
     e( 35 - 36) =    -33.99717  eV     2   --> G_5  D_5       
     e( 37 - 38) =    -32.04664  eV     2   --> G_5  D_5       
     e( 39 - 40) =    -32.04556  eV     2   --> G_5  D_5       
     e( 41 - 42) =    -32.03633  eV     2   --> G_5  D_5       
     e( 43 - 44) =    -32.02291  eV     2   --> G_5  D_5       
     e( 45 - 46) =    -32.02092  eV     2   --> G_5  D_5       
     e( 47 - 48) =    -31.98609  eV     2   --> G_5  D_5       
     e( 49 - 50) =    -31.98075  eV     2   --> G_5  D_5       
     e( 51 - 52) =    -31.95140  eV     2   --> G_5  D_5       
     e( 53 - 54) =    -31.93956  eV     2   --> G_5  D_5       
     e( 55 - 56) =    -31.93767  eV     2   --> G_5  D_5       
     e( 57 - 58) =    -31.93247  eV     2   --> G_5  D_5       
     e( 59 - 60) =    -31.92553  eV     2   --> G_5  D_5       
     e( 61 - 62) =    -31.92462  eV     2   --> G_5  D_5       
     e( 63 - 64) =    -31.91905  eV     2   --> G_5  D_5       
     e( 65 - 66) =    -31.91847  eV     2   --> G_5  D_5       
     e( 67 - 68) =    -31.91600  eV     2   --> G_5  D_5       
     e( 69 - 70) =    -31.90182  eV     2   --> G_5  D_5       
     e( 71 - 72) =    -31.87470  eV     2   --> G_5  D_5       
     e( 73 - 74) =    -14.93455  eV     2   --> G_5  D_5       
     e( 75 - 75) =    -14.66699  eV     1   -->   ?
     e( 76 - 76) =    -14.66689  eV     1   -->   ?
     e( 77 - 78) =    -14.33199  eV     2   --> G_5  D_5       
     e( 79 - 80) =    -14.32224  eV     2   --> G_5  D_5       
     e( 81 - 82) =    -14.08244  eV     2   --> G_5  D_5       
     e( 83 - 84) =    -13.95983  eV     2   --> G_5  D_5       
     e( 85 - 86) =    -13.89161  eV     2   --> G_5  D_5       
     e( 87 - 88) =    -13.87364  eV     2   --> G_5  D_5       
     e( 89 - 90) =    -13.80678  eV     2   --> G_5  D_5       
     e( 91 - 92) =    -13.80425  eV     2   --> G_5  D_5       
     e( 93 - 94) =    -13.80346  eV     2   --> G_5  D_5       
     e( 95 - 96) =    -13.72683  eV     2   --> G_5  D_5       
     e( 97 - 98) =    -13.69688  eV     2   --> G_5  D_5       
     e( 99 -100) =    -13.60298  eV     2   --> G_5  D_5       
     e(101 -102) =    -13.60184  eV     2   --> G_5  D_5       
     e(103 -104) =    -13.57485  eV     2   --> G_5  D_5       
     e(105 -106) =    -13.51967  eV     2   --> G_5  D_5       
     e(107 -108) =    -13.51807  eV     2   --> G_5  D_5       
     e(109 -110) =     -6.45356  eV     2   --> G_5  D_5       
     e(111 -112) =     -6.14782  eV     2   --> G_5  D_5       
     e(113 -114) =     -6.09834  eV     2   --> G_5  D_5       
     e(115 -116) =     -6.08364  eV     2   --> G_5  D_5       
     e(117 -118) =     -5.97647  eV     2   --> G_5  D_5       
     e(119 -120) =     -5.93400  eV     2   --> G_5  D_5       
     e(121 -121) =     -5.82829  eV     1   -->   ?
     e(122 -122) =     -5.82818  eV     1   -->   ?
     e(123 -124) =     -5.73139  eV     2   --> G_5  D_5       
     e(125 -126) =     -5.60953  eV     2   --> G_5  D_5       
     e(127 -128) =     -5.59852  eV     2   --> G_5  D_5       
     e(129 -130) =     -5.58058  eV     2   --> G_5  D_5       
     e(131 -132) =     -5.55060  eV     2   --> G_5  D_5       
     e(133 -134) =     -5.43910  eV     2   --> G_5  D_5       
     e(135 -136) =     -5.35335  eV     2   --> G_5  D_5       
     e(137 -138) =     -5.06080  eV     2   --> G_5  D_5       
     e(139 -140) =     -5.03851  eV     2   --> G_5  D_5       
     e(141 -142) =     -4.91599  eV     2   --> G_5  D_5       
     e(143 -144) =     -4.89753  eV     2   --> G_5  D_5       
     e(145 -146) =     -4.88850  eV     2   --> G_5  D_5       
     e(147 -148) =     -4.80697  eV     2   --> G_5  D_5       
     e(149 -150) =     -4.78816  eV     2   --> G_5  D_5       
     e(151 -152) =     -4.59594  eV     2   --> G_5  D_5       
     e(153 -154) =     -4.57488  eV     2   --> G_5  D_5       
     e(155 -156) =     -4.51019  eV     2   --> G_5  D_5       
     e(157 -158) =     -4.16199  eV     2   --> G_5  D_5       
     e(159 -160) =     -4.04715  eV     2   --> G_5  D_5       
     e(161 -161) =     -4.04286  eV     1   -->   ?
     e(162 -162) =     -4.04265  eV     1   -->   ?
     e(163 -164) =     -4.02720  eV     2   --> G_5  D_5       
     e(165 -166) =     -3.97008  eV     2   --> G_5  D_5       
     e(167 -168) =     -3.96365  eV     2   --> G_5  D_5       
     e(169 -170) =     -3.94865  eV     2   --> G_5  D_5       
     e(171 -171) =     -3.91401  eV     1   -->   ?
     e(172 -172) =     -3.91385  eV     1   -->   ?
     e(173 -174) =     -3.88078  eV     2   --> G_5  D_5       
     e(175 -176) =     -3.87503  eV     2   --> G_5  D_5       
     e(177 -178) =     -3.85084  eV     2   --> G_5  D_5       
     e(179 -179) =     -3.47245  eV     1   -->   ?
     e(180 -180) =     -3.47219  eV     1   -->   ?
     e(181 -182) =     -3.20607  eV     2   --> G_5  D_5       
     e(183 -183) =     -3.17460  eV     1   -->   ?
     e(184 -184) =     -3.17449  eV     1   -->   ?
     e(185 -186) =     -3.16006  eV     2   --> G_5  D_5       
     e(187 -187) =     -3.09698  eV     1   -->   ?
     e(188 -188) =     -3.09686  eV     1   -->   ?
     e(189 -190) =     -3.04629  eV     2   --> G_5  D_5       
     e(191 -192) =     -3.00390  eV     2   --> G_5  D_5       
     e(193 -194) =     -2.99428  eV     2   --> G_5  D_5       
     e(195 -196) =     -2.98002  eV     2   --> G_5  D_5       
     e(197 -198) =     -2.96372  eV     2   --> G_5  D_5       
     e(199 -199) =     -2.95809  eV     1   -->   ?
     e(200 -200) =     -2.95792  eV     1   -->   ?
     e(201 -202) =     -2.83564  eV     2   --> G_5  D_5       
     e(203 -204) =     -2.79091  eV     2   --> G_5  D_5       
     e(205 -206) =     -2.72111  eV     2   --> G_5  D_5       
     e(207 -208) =     -2.50039  eV     2   --> G_5  D_5       
     e(209 -210) =     -2.49916  eV     2   --> G_5  D_5       
     e(211 -212) =     -2.38562  eV     2   --> G_5  D_5       
     e(213 -214) =     -2.33427  eV     2   --> G_5  D_5       
     e(215 -216) =     -2.32114  eV     2   --> G_5  D_5       
     e(217 -218) =     -1.73410  eV     2   --> G_5  D_5       
     e(219 -220) =     -1.65028  eV     2   --> G_5  D_5       
     e(221 -222) =     -1.60397  eV     2   --> G_5  D_5       
     e(223 -224) =     -1.58056  eV     2   --> G_5  D_5       
     e(225 -226) =     -1.50076  eV     2   --> G_5  D_5       
     e(227 -227) =     -1.37038  eV     1   -->   ?
     e(228 -228) =     -1.37023  eV     1   -->   ?
     e(229 -230) =     -1.33264  eV     2   --> G_5  D_5       
     e(231 -232) =     -1.21235  eV     2   --> G_5  D_5       
     e(233 -233) =     -1.03181  eV     1   -->   ?
     e(234 -234) =     -1.03163  eV     1   -->   ?
     e(235 -236) =      0.73948  eV     2   --> G_5  D_5       
     e(237 -238) =      0.75195  eV     2   --> G_5  D_5       
     e(239 -240) =      0.86502  eV     2   --> G_5  D_5       
     e(241 -242) =      0.87881  eV     2   --> G_5  D_5       
     e(243 -243) =      0.90751  eV     1   -->   ?
     e(244 -244) =      0.90767  eV     1   -->   ?
     e(245 -246) =      0.99322  eV     2   --> G_5  D_5       
     e(247 -248) =      0.99981  eV     2   --> G_5  D_5       
     e(249 -250) =      1.04239  eV     2   --> G_5  D_5       
     e(251 -251) =      1.08178  eV     1   -->   ?
     e(252 -252) =      1.08193  eV     1   -->   ?
     e(253 -254) =      1.13481  eV     2   --> G_5  D_5       
     e(255 -256) =      1.14598  eV     2   --> G_5  D_5       
     e(257 -258) =      1.18870  eV     2   --> G_5  D_5       
     e(259 -260) =      1.19966  eV     2   --> G_5  D_5       
     e(261 -262) =      1.26032  eV     2   --> G_5  D_5       
     e(263 -264) =      1.31618  eV     2   --> G_5  D_5       
     e(265 -266) =      1.31764  eV     2   --> G_5  D_5       
     e(267 -268) =      1.36352  eV     2   --> G_5  D_5       
     e(269 -269) =      1.36678  eV     1   -->   ?
     e(270 -270) =      1.36689  eV     1   -->   ?
     e(271 -272) =      1.38297  eV     2   --> G_5  D_5       

 **************************************************************************

 **************************************************************************

                    xk=(   0.00000,   0.40415,   0.00000  )

     Band symmetry, C_2v (mm2)  double point group:

     e(  1 -  2) =    -56.57855  eV     2   --> G_5  D_5       
     e(  3 -  4) =    -56.57358  eV     2   --> G_5  D_5       
     e(  5 -  6) =    -56.56999  eV     2   --> G_5  D_5       
     e(  7 -  8) =    -56.56955  eV     2   --> G_5  D_5       
     e(  9 - 10) =    -56.56719  eV     2   --> G_5  D_5       
     e( 11 - 12) =    -56.56614  eV     2   --> G_5  D_5       
     e( 13 - 14) =    -56.56461  eV     2   --> G_5  D_5       
     e( 15 - 16) =    -56.56032  eV     2   --> G_5  D_5       
     e( 17 - 18) =    -56.55911  eV     2   --> G_5  D_5       
     e( 19 - 20) =    -34.06828  eV     2   --> G_5  D_5       
     e( 21 - 22) =    -34.06386  eV     2   --> G_5  D_5       
     e( 23 - 24) =    -34.06096  eV     2   --> G_5  D_5       
     e( 25 - 26) =    -34.05332  eV     2   --> G_5  D_5       
     e( 27 - 28) =    -34.05208  eV     2   --> G_5  D_5       
     e( 29 - 30) =    -34.03556  eV     2   --> G_5  D_5       
     e( 31 - 32) =    -34.03016  eV     2   --> G_5  D_5       
     e( 33 - 34) =    -34.01429  eV     2   --> G_5  D_5       
     e( 35 - 36) =    -33.99587  eV     2   --> G_5  D_5       
     e( 37 - 38) =    -32.04642  eV     2   --> G_5  D_5       
     e( 39 - 40) =    -32.04534  eV     2   --> G_5  D_5       
     e( 41 - 42) =    -32.03514  eV     2   --> G_5  D_5       
     e( 43 - 44) =    -32.02293  eV     2   --> G_5  D_5       
     e( 45 - 46) =    -32.01965  eV     2   --> G_5  D_5       
     e( 47 - 48) =    -31.98699  eV     2   --> G_5  D_5       
     e( 49 - 50) =    -31.98181  eV     2   --> G_5  D_5       
     e( 51 - 52) =    -31.95469  eV     2   --> G_5  D_5       
     e( 53 - 54) =    -31.93900  eV     2   --> G_5  D_5       
     e( 55 - 56) =    -31.93833  eV     2   --> G_5  D_5       
     e( 57 - 58) =    -31.93316  eV     2   --> G_5  D_5       
     e( 59 - 60) =    -31.92528  eV     2   --> G_5  D_5       
     e( 61 - 62) =    -31.92468  eV     2   --> G_5  D_5       
     e( 63 - 64) =    -31.92000  eV     2   --> G_5  D_5       
     e( 65 - 66) =    -31.91828  eV     2   --> G_5  D_5       
     e( 67 - 68) =    -31.91583  eV     2   --> G_5  D_5       
     e( 69 - 70) =    -31.90332  eV     2   --> G_5  D_5       
     e( 71 - 72) =    -31.87245  eV     2   --> G_5  D_5       
     e( 73 - 74) =    -14.95529  eV     2   --> G_5  D_5       
     e( 75 - 75) =    -14.63535  eV     1   -->   ?
     e( 76 - 76) =    -14.63524  eV     1   -->   ?
     e( 77 - 78) =    -14.32663  eV     2   --> G_5  D_5       
     e( 79 - 80) =    -14.31718  eV     2   --> G_5  D_5       
     e( 81 - 82) =    -14.09193  eV     2   --> G_5  D_5       
     e( 83 - 83) =    -13.94536  eV     1   -->   ?
     e( 84 - 84) =    -13.94526  eV     1   -->   ?
     e( 85 - 86) =    -13.91014  eV     2   --> G_5  D_5       
     e( 87 - 88) =    -13.89346  eV     2   --> G_5  D_5       
     e( 89 - 89) =    -13.81889  eV     1   -->   ?
     e( 90 - 90) =    -13.81879  eV     1   -->   ?
     e( 91 - 92) =    -13.80198  eV     2   --> G_5  D_5       
     e( 93 - 94) =    -13.80121  eV     2   --> G_5  D_5       
     e( 95 - 96) =    -13.71340  eV     2   --> G_5  D_5       
     e( 97 - 98) =    -13.68244  eV     2   --> G_5  D_5       
     e( 99 -100) =    -13.61209  eV     2   --> G_5  D_5       
     e(101 -102) =    -13.61101  eV     2   --> G_5  D_5       
     e(103 -104) =    -13.58013  eV     2   --> G_5  D_5       
     e(105 -106) =    -13.51270  eV     2   --> G_5  D_5       
     e(107 -108) =    -13.51107  eV     2   --> G_5  D_5       
     e(109 -110) =     -6.43460  eV     2   --> G_5  D_5       
     e(111 -112) =     -6.17464  eV     2   --> G_5  D_5       
     e(113 -114) =     -6.09763  eV     2   --> G_5  D_5       
     e(115 -116) =     -6.08484  eV     2   --> G_5  D_5       
     e(117 -118) =     -5.95139  eV     2   --> G_5  D_5       
     e(119 -120) =     -5.90479  eV     2   --> G_5  D_5       
     e(121 -121) =     -5.79670  eV     1   -->   ?
     e(122 -122) =     -5.79658  eV     1   -->   ?
     e(123 -124) =     -5.75629  eV     2   --> G_5  D_5       
     e(125 -126) =     -5.63269  eV     2   --> G_5  D_5       
     e(127 -128) =     -5.60888  eV     2   --> G_5  D_5       
     e(129 -130) =     -5.59225  eV     2   --> G_5  D_5       
     e(131 -132) =     -5.53289  eV     2   --> G_5  D_5       
     e(133 -134) =     -5.40835  eV     2   --> G_5  D_5       
     e(135 -136) =     -5.32788  eV     2   --> G_5  D_5       
     e(137 -138) =     -5.06476  eV     2   --> G_5  D_5       
     e(139 -140) =     -5.04370  eV     2   --> G_5  D_5       
     e(141 -142) =     -4.91854  eV     2   --> G_5  D_5       
     e(143 -144) =     -4.90850  eV     2   --> G_5  D_5       
     e(145 -146) =     -4.90044  eV     2   --> G_5  D_5       
     e(147 -148) =     -4.80053  eV     2   --> G_5  D_5       
     e(149 -150) =     -4.78108  eV     2   --> G_5  D_5       
     e(151 -152) =     -4.66378  eV     2   --> G_5  D_5       
     e(153 -154) =     -4.59694  eV     2   --> G_5  D_5       
     e(155 -156) =     -4.53750  eV     2   --> G_5  D_5       
     e(157 -158) =     -4.16430  eV     2   --> G_5  D_5       
     e(159 -159) =     -4.10589  eV     1   -->   ?
     e(160 -160) =     -4.10570  eV     1   -->   ?
     e(161 -162) =     -4.05801  eV     2   --> G_5  D_5       
     e(163 -164) =     -4.02957  eV     2   --> G_5  D_5       
     e(165 -166) =     -4.02332  eV     2   --> G_5  D_5       
     e(167 -168) =     -4.00597  eV     2   --> G_5  D_5       
     e(169 -170) =     -3.95329  eV     2   --> G_5  D_5       
     e(171 -172) =     -3.87285  eV     2   --> G_5  D_5       
     e(173 -173) =     -3.85244  eV     1   -->   ?
     e(174 -174) =     -3.85226  eV     1   -->   ?
     e(175 -176) =     -3.84648  eV     2   --> G_5  D_5       
     e(177 -178) =     -3.82692  eV     2   --> G_5  D_5       
     e(179 -179) =     -3.42560  eV     1   -->   ?
     e(180 -180) =     -3.42535  eV     1   -->   ?
     e(181 -181) =     -3.18889  eV     1   -->   ?
     e(182 -182) =     -3.18876  eV     1   -->   ?
     e(183 -184) =     -3.14112  eV     2   --> G_5  D_5       
     e(185 -186) =     -3.13521  eV     2   --> G_5  D_5       
     e(187 -188) =     -3.09637  eV     2   --> G_5  D_5       
     e(189 -190) =     -3.02399  eV     2   --> G_5  D_5       
     e(191 -192) =     -3.01303  eV     2   --> G_5  D_5       
     e(193 -194) =     -3.00104  eV     2   --> G_5  D_5       
     e(195 -196) =     -2.98584  eV     2   --> G_5  D_5       
     e(197 -198) =     -2.95920  eV     2   --> G_5  D_5       
     e(199 -199) =     -2.93471  eV     1   -->   ?
     e(200 -200) =     -2.93458  eV     1   -->   ?
     e(201 -202) =     -2.82064  eV     2   --> G_5  D_5       
     e(203 -204) =     -2.77887  eV     2   --> G_5  D_5       
     e(205 -206) =     -2.68856  eV     2   --> G_5  D_5       
     e(207 -208) =     -2.52211  eV     2   --> G_5  D_5       
     e(209 -210) =     -2.51822  eV     2   --> G_5  D_5       
     e(211 -212) =     -2.40870  eV     2   --> G_5  D_5       
     e(213 -214) =     -2.33992  eV     2   --> G_5  D_5       
     e(215 -216) =     -2.31253  eV     2   --> G_5  D_5       
     e(217 -218) =     -1.74495  eV     2   --> G_5  D_5       
     e(219 -220) =     -1.65931  eV     2   --> G_5  D_5       
     e(221 -222) =     -1.62958  eV     2   --> G_5  D_5       
     e(223 -224) =     -1.59052  eV     2   --> G_5  D_5       
     e(225 -226) =     -1.52874  eV     2   --> G_5  D_5       
     e(227 -227) =     -1.41048  eV     1   -->   ?
     e(228 -228) =     -1.41034  eV     1   -->   ?
     e(229 -230) =     -1.30221  eV     2   --> G_5  D_5       
     e(231 -232) =     -1.18018  eV     2   --> G_5  D_5       
     e(233 -233) =     -1.00825  eV     1   -->   ?
     e(234 -234) =     -1.00808  eV     1   -->   ?
     e(235 -236) =      0.75130  eV     2   --> G_5  D_5       
     e(237 -238) =      0.76338  eV     2   --> G_5  D_5       
     e(239 -240) =      0.83490  eV     2   --> G_5  D_5       
     e(241 -242) =      0.84739  eV     2   --> G_5  D_5       
     e(243 -243) =      0.90603  eV     1   -->   ?
     e(244 -244) =      0.90619  eV     1   -->   ?
     e(245 -246) =      0.98366  eV     2   --> G_5  D_5       
     e(247 -248) =      0.99362  eV     2   --> G_5  D_5       
     e(249 -250) =      1.03721  eV     2   --> G_5  D_5       
     e(251 -251) =      1.11348  eV     1   -->   ?
     e(252 -252) =      1.11361  eV     1   -->   ?
     e(253 -254) =      1.11827  eV     2   --> G_5  D_5       
     e(255 -256) =      1.15747  eV     2   --> G_5  D_5       
     e(257 -258) =      1.18338  eV     2   --> G_5  D_5       
     e(259 -260) =      1.19453  eV     2   --> G_5  D_5       
     e(261 -262) =      1.28601  eV     2   --> G_5  D_5       
     e(263 -264) =      1.30262  eV     2   --> G_5  D_5       
     e(265 -266) =      1.34291  eV     2   --> G_5  D_5       
     e(267 -268) =      1.34459  eV     2   --> G_5  D_5       
     e(269 -269) =      1.38780  eV     1   -->   ?
     e(270 -270) =      1.38792  eV     1   -->   ?
     e(271 -272) =      1.39955  eV     2   --> G_5  D_5       

 **************************************************************************

 **************************************************************************

                    xk=(   0.00000,   0.37528,   0.00000  )

     Band symmetry, C_2v (mm2)  double point group:

     e(  1 -  2) =    -56.57906  eV     2   --> G_5  D_5       
     e(  3 -  4) =    -56.57247  eV     2   --> G_5  D_5       
     e(  5 -  6) =    -56.56967  eV     2   --> G_5  D_5       
     e(  7 -  8) =    -56.56930  eV     2   --> G_5  D_5       
     e(  9 - 10) =    -56.56743  eV     2   --> G_5  D_5       
     e( 11 - 12) =    -56.56664  eV     2   --> G_5  D_5       
     e( 13 - 14) =    -56.56495  eV     2   --> G_5  D_5       
     e( 15 - 16) =    -56.56103  eV     2   --> G_5  D_5       
     e( 17 - 18) =    -56.55979  eV     2   --> G_5  D_5       
     e( 19 - 20) =    -34.07035  eV     2   --> G_5  D_5       
     e( 21 - 22) =    -34.06323  eV     2   --> G_5  D_5       
     e( 23 - 24) =    -34.06021  eV     2   --> G_5  D_5       
     e( 25 - 26) =    -34.05479  eV     2   --> G_5  D_5       
     e( 27 - 28) =    -34.05215  eV     2   --> G_5  D_5       
     e( 29 - 30) =    -34.03545  eV     2   --> G_5  D_5       
     e( 31 - 32) =    -34.03023  eV     2   --> G_5  D_5       
     e( 33 - 34) =    -34.01496  eV     2   --> G_5  D_5       
     e( 35 - 36) =    -33.99510  eV     2   --> G_5  D_5       
     e( 37 - 38) =    -32.04826  eV     2   --> G_5  D_5       
     e( 39 - 40) =    -32.04415  eV     2   --> G_5  D_5       
     e( 41 - 42) =    -32.03395  eV     2   --> G_5  D_5       
     e( 43 - 44) =    -32.02279  eV     2   --> G_5  D_5       
     e( 45 - 46) =    -32.02047  eV     2   --> G_5  D_5       
     e( 47 - 48) =    -31.98766  eV     2   --> G_5  D_5       
     e( 49 - 50) =    -31.98263  eV     2   --> G_5  D_5       
     e( 51 - 52) =    -31.95530  eV     2   --> G_5  D_5       
     e( 53 - 54) =    -31.94157  eV     2   --> G_5  D_5       
     e( 55 - 56) =    -31.93844  eV     2   --> G_5  D_5       
     e( 57 - 58) =    -31.93518  eV     2   --> G_5  D_5       
     e( 59 - 60) =    -31.92438  eV     2   --> G_5  D_5       
     e( 61 - 62) =    -31.92393  eV     2   --> G_5  D_5       
     e( 63 - 64) =    -31.91994  eV     2   --> G_5  D_5       
     e( 65 - 66) =    -31.91758  eV     2   --> G_5  D_5       
     e( 67 - 68) =    -31.91526  eV     2   --> G_5  D_5       
     e( 69 - 70) =    -31.90537  eV     2   --> G_5  D_5       
     e( 71 - 72) =    -31.87002  eV     2   --> G_5  D_5       
     e( 73 - 74) =    -14.97478  eV     2   --> G_5  D_5       
     e( 75 - 75) =    -14.60300  eV     1   -->   ?
     e( 76 - 76) =    -14.60289  eV     1   -->   ?
     e( 77 - 78) =    -14.32033  eV     2   --> G_5  D_5       
     e( 79 - 80) =    -14.31123  eV     2   --> G_5  D_5       
     e( 81 - 82) =    -14.10092  eV     2   --> G_5  D_5       
     e( 83 - 83) =    -13.93058  eV     1   -->   ?
     e( 84 - 84) =    -13.93047  eV     1   -->   ?
     e( 85 - 86) =    -13.92879  eV     2   --> G_5  D_5       
     e( 87 - 88) =    -13.91341  eV     2   --> G_5  D_5       
     e( 89 - 89) =    -13.83301  eV     1   -->   ?
     e( 90 - 90) =    -13.83290  eV     1   -->   ?
     e( 91 - 92) =    -13.79931  eV     2   --> G_5  D_5       
     e( 93 - 94) =    -13.79857  eV     2   --> G_5  D_5       
     e( 95 - 96) =    -13.70081  eV     2   --> G_5  D_5       
     e( 97 - 98) =    -13.66890  eV     2   --> G_5  D_5       
     e( 99 -100) =    -13.62120  eV     2   --> G_5  D_5       
     e(101 -102) =    -13.62020  eV     2   --> G_5  D_5       
     e(103 -103) =    -13.58628  eV     1   -->   ?
     e(104 -104) =    -13.58617  eV     1   -->   ?
     e(105 -106) =    -13.50611  eV     2   --> G_5  D_5       
     e(107 -108) =    -13.50447  eV     2   --> G_5  D_5       
     e(109 -110) =     -6.41208  eV     2   --> G_5  D_5       
     e(111 -112) =     -6.20035  eV     2   --> G_5  D_5       
     e(113 -114) =     -6.09492  eV     2   --> G_5  D_5       
     e(115 -116) =     -6.08392  eV     2   --> G_5  D_5       
     e(117 -118) =     -5.92456  eV     2   --> G_5  D_5       
     e(119 -120) =     -5.87328  eV     2   --> G_5  D_5       
     e(121 -122) =     -5.78006  eV     2   --> G_5  D_5       
     e(123 -123) =     -5.76653  eV     1   -->   ?
     e(124 -124) =     -5.76640  eV     1   -->   ?
     e(125 -126) =     -5.65519  eV     2   --> G_5  D_5       
     e(127 -128) =     -5.62096  eV     2   --> G_5  D_5       
     e(129 -130) =     -5.60580  eV     2   --> G_5  D_5       
     e(131 -132) =     -5.51169  eV     2   --> G_5  D_5       
     e(133 -134) =     -5.37750  eV     2   --> G_5  D_5       
     e(135 -136) =     -5.30253  eV     2   --> G_5  D_5       
     e(137 -138) =     -5.06863  eV     2   --> G_5  D_5       
     e(139 -140) =     -5.04894  eV     2   --> G_5  D_5       
     e(141 -142) =     -4.92172  eV     2   --> G_5  D_5       
     e(143 -144) =     -4.91935  eV     2   --> G_5  D_5       
     e(145 -146) =     -4.91221  eV     2   --> G_5  D_5       
     e(147 -148) =     -4.79586  eV     2   --> G_5  D_5       
     e(149 -150) =     -4.77601  eV     2   --> G_5  D_5       
     e(151 -152) =     -4.72899  eV     2   --> G_5  D_5       
     e(153 -154) =     -4.62083  eV     2   --> G_5  D_5       
     e(155 -156) =     -4.56652  eV     2   --> G_5  D_5       
     e(157 -158) =     -4.17035  eV     2   --> G_5  D_5       
     e(159 -159) =     -4.16858  eV     1   -->   ?
     e(160 -160) =     -4.16840  eV     1   -->   ?
     e(161 -162) =     -4.12913  eV     2   --> G_5  D_5       
     e(163 -164) =     -4.10521  eV     2   --> G_5  D_5       
     e(165 -166) =     -4.00625  eV     2   --> G_5  D_5       
     e(167 -168) =     -3.99725  eV     2   --> G_5  D_5       
     e(169 -170) =     -3.93434  eV     2   --> G_5  D_5       
     e(171 -172) =     -3.86329  eV     2   --> G_5  D_5       
     e(173 -174) =     -3.81665  eV     2   --> G_5  D_5       
     e(175 -176) =     -3.80144  eV     2   --> G_5  D_5       
     e(177 -177) =     -3.79411  eV     1   -->   ?
     e(178 -178) =     -3.79392  eV     1   -->   ?
     e(179 -179) =     -3.38353  eV     1   -->   ?
     e(180 -180) =     -3.38331  eV     1   -->   ?
     e(181 -181) =     -3.19726  eV     1   -->   ?
     e(182 -182) =     -3.19711  eV     1   -->   ?
     e(183 -184) =     -3.17360  eV     2   --> G_5  D_5       
     e(185 -186) =     -3.08090  eV     2   --> G_5  D_5       
     e(187 -188) =     -3.03983  eV     2   --> G_5  D_5       
     e(189 -190) =     -3.03198  eV     2   --> G_5  D_5       
     e(191 -192) =     -3.00835  eV     2   --> G_5  D_5       
     e(193 -194) =     -2.99885  eV     2   --> G_5  D_5       
     e(195 -196) =     -2.99728  eV     2   --> G_5  D_5       
     e(197 -198) =     -2.93597  eV     2   --> G_5  D_5       
     e(199 -199) =     -2.91149  eV     1   -->   ?
     e(200 -200) =     -2.91138  eV     1   -->   ?
     e(201 -202) =     -2.80285  eV     2   --> G_5  D_5       
     e(203 -204) =     -2.76646  eV     2   --> G_5  D_5       
     e(205 -206) =     -2.65859  eV     2   --> G_5  D_5       
     e(207 -208) =     -2.54291  eV     2   --> G_5  D_5       
     e(209 -210) =     -2.53919  eV     2   --> G_5  D_5       
     e(211 -212) =     -2.43446  eV     2   --> G_5  D_5       
     e(213 -214) =     -2.34649  eV     2   --> G_5  D_5       
     e(215 -216) =     -2.30653  eV     2   --> G_5  D_5       
     e(217 -218) =     -1.75596  eV     2   --> G_5  D_5       
     e(219 -220) =     -1.66924  eV     2   --> G_5  D_5       
     e(221 -222) =     -1.65484  eV     2   --> G_5  D_5       
     e(223 -224) =     -1.60157  eV     2   --> G_5  D_5       
     e(225 -226) =     -1.55655  eV     2   --> G_5  D_5       
     e(227 -227) =     -1.45131  eV     1   -->   ?
     e(228 -228) =     -1.45118  eV     1   -->   ?
     e(229 -230) =     -1.27348  eV     2   --> G_5  D_5       
     e(231 -232) =     -1.14948  eV     2   --> G_5  D_5       
     e(233 -233) =     -0.98747  eV     1   -->   ?
     e(234 -234) =     -0.98731  eV     1   -->   ?
     e(235 -236) =      0.76596  eV     2   --> G_5  D_5       
     e(237 -238) =      0.77764  eV     2   --> G_5  D_5       
     e(239 -240) =      0.80206  eV     2   --> G_5  D_5       
     e(241 -242) =      0.81286  eV     2   --> G_5  D_5       
     e(243 -243) =      0.90895  eV     1   -->   ?
     e(244 -244) =      0.90911  eV     1   -->   ?
     e(245 -246) =      0.97460  eV     2   --> G_5  D_5       
     e(247 -248) =      0.98760  eV     2   --> G_5  D_5       
     e(249 -250) =      1.03206  eV     2   --> G_5  D_5       
     e(251 -252) =      1.10329  eV     2   --> G_5  D_5       
     e(253 -254) =      1.14384  eV     2   --> G_5  D_5       
     e(255 -256) =      1.17273  eV     2   --> G_5  D_5       
     e(257 -258) =      1.17818  eV     2   --> G_5  D_5       
     e(259 -260) =      1.18936  eV     2   --> G_5  D_5       
     e(261 -262) =      1.29166  eV     2   --> G_5  D_5       
     e(263 -264) =      1.31847  eV     2   --> G_5  D_5       
     e(265 -266) =      1.32527  eV     2   --> G_5  D_5       
     e(267 -268) =      1.37567  eV     2   --> G_5  D_5       
     e(269 -270) =      1.38426  eV     2   --> G_5  D_5       
     e(271 -271) =      1.41030  eV     1   -->   ?
     e(272 -272) =      1.41043  eV     1   -->   ?

 **************************************************************************

 **************************************************************************

                    xk=(   0.00000,   0.34641,   0.00000  )

     Band symmetry, C_2v (mm2)  double point group:

     e(  1 -  2) =    -56.57873  eV     2   --> G_5  D_5       
     e(  3 -  4) =    -56.57197  eV     2   --> G_5  D_5       
     e(  5 -  6) =    -56.57020  eV     2   --> G_5  D_5       
     e(  7 -  8) =    -56.56968  eV     2   --> G_5  D_5       
     e(  9 - 10) =    -56.56690  eV     2   --> G_5  D_5       
     e( 11 - 12) =    -56.56657  eV     2   --> G_5  D_5       
     e( 13 - 14) =    -56.56475  eV     2   --> G_5  D_5       
     e( 15 - 16) =    -56.56003  eV     2   --> G_5  D_5       
     e( 17 - 18) =    -56.55883  eV     2   --> G_5  D_5       
     e( 19 - 20) =    -34.06969  eV     2   --> G_5  D_5       
     e( 21 - 22) =    -34.06114  eV     2   --> G_5  D_5       
     e( 23 - 24) =    -34.05846  eV     2   --> G_5  D_5       
     e( 25 - 26) =    -34.05373  eV     2   --> G_5  D_5       
     e( 27 - 28) =    -34.05103  eV     2   --> G_5  D_5       
     e( 29 - 30) =    -34.03669  eV     2   --> G_5  D_5       
     e( 31 - 32) =    -34.03170  eV     2   --> G_5  D_5       
     e( 33 - 34) =    -34.01672  eV     2   --> G_5  D_5       
     e( 35 - 36) =    -33.99310  eV     2   --> G_5  D_5       
     e( 37 - 38) =    -32.04763  eV     2   --> G_5  D_5       
     e( 39 - 40) =    -32.04177  eV     2   --> G_5  D_5       
     e( 41 - 42) =    -32.03155  eV     2   --> G_5  D_5       
     e( 43 - 44) =    -32.02139  eV     2   --> G_5  D_5       
     e( 45 - 46) =    -32.01878  eV     2   --> G_5  D_5       
     e( 47 - 48) =    -31.98924  eV     2   --> G_5  D_5       
     e( 49 - 50) =    -31.98433  eV     2   --> G_5  D_5       
     e( 51 - 52) =    -31.95854  eV     2   --> G_5  D_5       
     e( 53 - 54) =    -31.94219  eV     2   --> G_5  D_5       
     e( 55 - 56) =    -31.93744  eV     2   --> G_5  D_5       
     e( 57 - 58) =    -31.93526  eV     2   --> G_5  D_5       
[...]
     e(101 -101) =    -13.56173  eV     1   -->   ?
     e(102 -102) =    -13.56146  eV     1   -->   ?
     e(103 -103) =    -13.56030  eV     1   -->   ?
     e(104 -104) =    -13.56004  eV     1   -->   ?
     e(105 -105) =    -13.55647  eV     1   -->   ?
     e(106 -106) =    -13.55622  eV     1   -->   ?
     e(107 -107) =    -13.55507  eV     1   -->   ?
     e(108 -108) =    -13.55482  eV     1   -->   ?
     e(109 -109) =     -6.49834  eV     1   --> G_3            
     e(110 -110) =     -6.49733  eV     1   --> G_4            
     e(111 -111) =     -6.08560  eV     1   --> G_3            
     e(112 -112) =     -6.08550  eV     1   --> G_3            
     e(113 -114) =     -6.05898  eV     2   -->   2 G_4            
     e(115 -116) =     -6.04896  eV     2   -->   2 G_4            
     e(117 -118) =     -6.02299  eV     2   -->   2 G_3            
     e(119 -119) =     -5.99382  eV     1   -->   ?
     e(120 -120) =     -5.99359  eV     1   -->   ?
     e(121 -121) =     -5.99349  eV     1   -->   ?
     e(122 -122) =     -5.99326  eV     1   -->   ?
     e(123 -123) =     -5.60243  eV     1   --> G_3            
     e(124 -124) =     -5.60215  eV     1   --> G_3            
     e(125 -125) =     -5.59422  eV     1   --> G_3            
     e(126 -126) =     -5.59043  eV     1   --> G_4            
     e(127 -127) =     -5.58013  eV     1   --> G_4            
     e(128 -128) =     -5.57985  eV     1   --> G_4            
     e(129 -129) =     -5.57796  eV     1   --> G_4            
     e(130 -130) =     -5.57491  eV     1   --> G_3            
     e(131 -131) =     -5.55736  eV     1   --> G_3            
     e(132 -132) =     -5.55350  eV     1   --> G_4            
     e(133 -133) =     -5.49623  eV     1   --> G_4            
     e(134 -134) =     -5.49597  eV     1   --> G_4            
     e(135 -135) =     -5.47052  eV     1   --> G_3            
     e(136 -136) =     -5.47025  eV     1   --> G_3            
     e(137 -137) =     -5.06008  eV     1   --> G_4            
     e(138 -138) =     -5.03609  eV     1   --> G_3            
     e(139 -139) =     -5.03334  eV     1   --> G_3            
     e(140 -140) =     -5.01254  eV     1   --> G_4            
     e(141 -141) =     -4.91212  eV     1   -->   ?
     e(142 -142) =     -4.91154  eV     1   -->   ?
     e(143 -143) =     -4.84831  eV     1   --> G_4            
     e(144 -144) =     -4.84805  eV     1   --> G_4            
     e(145 -145) =     -4.84595  eV     1   --> G_3            
     e(146 -146) =     -4.84569  eV     1   --> G_3            
     e(147 -147) =     -4.83394  eV     1   --> G_3            
     e(148 -148) =     -4.83368  eV     1   --> G_3            
     e(149 -149) =     -4.83184  eV     1   --> G_4            
     e(150 -150) =     -4.83157  eV     1   --> G_4            
     e(151 -151) =     -4.55449  eV     1   --> G_4            
     e(152 -152) =     -4.47547  eV     1   --> G_3            
     e(153 -153) =     -4.46857  eV     1   --> G_3            
     e(154 -154) =     -4.39732  eV     1   --> G_4            
     e(155 -155) =     -4.25016  eV     1   -->   ?
     e(156 -156) =     -4.24989  eV     1   -->   ?
     e(157 -157) =     -4.24976  eV     1   -->   ?
     e(158 -158) =     -4.24948  eV     1   -->   ?
     e(159 -159) =     -4.13649  eV     1   --> G_3            
     e(160 -160) =     -4.13638  eV     1   --> G_3            
     e(161 -161) =     -4.12551  eV     1   --> G_4            
     e(162 -162) =     -4.12540  eV     1   --> G_4            
     e(163 -163) =     -4.02573  eV     1   --> G_4            
     e(164 -164) =     -4.02562  eV     1   --> G_4            
     e(165 -165) =     -4.01612  eV     1   --> G_3            
     e(166 -166) =     -4.01600  eV     1   --> G_3            
     e(167 -167) =     -3.97759  eV     1   --> G_3            
     e(168 -168) =     -3.93074  eV     1   --> G_4            
     e(169 -169) =     -3.92845  eV     1   --> G_4            
     e(170 -170) =     -3.90232  eV     1   --> G_4            
     e(171 -171) =     -3.89835  eV     1   --> G_3            
     e(172 -172) =     -3.89462  eV     1   --> G_3            
     e(173 -173) =     -3.74133  eV     1   -->   ?
     e(174 -174) =     -3.74118  eV     1   -->   ?
     e(175 -175) =     -3.73961  eV     1   -->   ?
     e(176 -176) =     -3.73946  eV     1   -->   ?
     e(177 -178) =     -3.59164  eV     2   -->   2 G_4            
     e(179 -180) =     -3.55519  eV     2   -->   2 G_3            
     e(181 -182) =     -3.55374  eV     2   -->   2 G_3            
     e(183 -184) =     -3.51850  eV     2   -->   2 G_4            
     e(185 -185) =     -3.11587  eV     1   --> G_4            
     e(186 -186) =     -3.08626  eV     1   --> G_3            
     e(187 -187) =     -3.08019  eV     1   -->   ?
     e(188 -188) =     -3.07975  eV     1   -->   ?
     e(189 -189) =     -3.07766  eV     1   -->   ?
     e(190 -190) =     -3.07722  eV     1   -->   ?
     e(191 -191) =     -3.04569  eV     1   --> G_3            
     e(192 -192) =     -3.01800  eV     1   --> G_4            
     e(193 -193) =     -3.01250  eV     1   -->   ?
     e(194 -194) =     -3.01067  eV     1   -->   ?
     e(195 -195) =     -2.91473  eV     1   --> G_4            
     e(196 -196) =     -2.91454  eV     1   --> G_4            
     e(197 -197) =     -2.91011  eV     1   --> G_3            
     e(198 -198) =     -2.90964  eV     1   --> G_3            
     e(199 -199) =     -2.89926  eV     1   --> G_3            
     e(200 -200) =     -2.89907  eV     1   --> G_3            
     e(201 -201) =     -2.89480  eV     1   --> G_4            
     e(202 -202) =     -2.89432  eV     1   --> G_4            
     e(203 -203) =     -2.87361  eV     1   --> G_3            
     e(204 -204) =     -2.87344  eV     1   --> G_3            
     e(205 -205) =     -2.85390  eV     1   --> G_4            
     e(206 -206) =     -2.85373  eV     1   --> G_4            
     e(207 -207) =     -2.46200  eV     1   --> G_3            
     e(208 -208) =     -2.44170  eV     1   --> G_4            
     e(209 -209) =     -2.40173  eV     1   --> G_4            
     e(210 -210) =     -2.40158  eV     1   --> G_4            
     e(211 -211) =     -2.38446  eV     1   --> G_3            
     e(212 -212) =     -2.38431  eV     1   --> G_3            
     e(213 -213) =     -2.34091  eV     1   --> G_4            
     e(214 -214) =     -2.32870  eV     1   --> G_3            
     e(215 -215) =     -2.32012  eV     1   --> G_4            
     e(216 -216) =     -2.31777  eV     1   --> G_3            
     e(217 -217) =     -1.71570  eV     1   --> G_4            
     e(218 -218) =     -1.70407  eV     1   --> G_3            
     e(219 -219) =     -1.63727  eV     1   --> G_3            
     e(220 -220) =     -1.61886  eV     1   --> G_4            
     e(221 -221) =     -1.56267  eV     1   --> G_4            
     e(222 -222) =     -1.55013  eV     1   --> G_3            
     e(223 -223) =     -1.47758  eV     1   --> G_3            
     e(224 -224) =     -1.47730  eV     1   --> G_3            
     e(225 -225) =     -1.46935  eV     1   --> G_4            
     e(226 -226) =     -1.46908  eV     1   --> G_4            
     e(227 -227) =     -1.36525  eV     1   --> G_4            
     e(228 -228) =     -1.36501  eV     1   --> G_4            
     e(229 -229) =     -1.35725  eV     1   --> G_3            
     e(230 -230) =     -1.35702  eV     1   --> G_3            
     e(231 -231) =     -1.18172  eV     1   -->   ?
     e(232 -232) =     -1.18136  eV     1   -->   ?
     e(233 -233) =     -1.18101  eV     1   -->   ?
     e(234 -234) =     -1.18064  eV     1   -->   ?
     e(235 -235) =      0.71311  eV     1   --> G_4            
     e(236 -236) =      0.71624  eV     1   --> G_3            
     e(237 -237) =      0.72654  eV     1   --> G_4            
     e(238 -238) =      0.72931  eV     1   --> G_3            
     e(239 -239) =      0.95209  eV     1   -->   ?
     e(240 -240) =      0.95234  eV     1   -->   ?
     e(241 -241) =      0.95540  eV     1   -->   ?
     e(242 -242) =      0.95565  eV     1   -->   ?
     e(243 -243) =      0.97693  eV     1   --> G_4            
     e(244 -245) =      0.97714  eV     2   --> G_3            
     e(244 -245) =      0.97714  eV     2   --> G_4            
     e(246 -246) =      0.97741  eV     1   --> G_3            
     e(247 -247) =      0.98762  eV     1   --> G_4            
     e(248 -248) =      0.98782  eV     1   --> G_4            
     e(249 -249) =      0.99152  eV     1   --> G_3            
     e(250 -250) =      0.99173  eV     1   --> G_3            
     e(251 -251) =      1.04962  eV     1   --> G_4            
     e(252 -252) =      1.05180  eV     1   --> G_3            
     e(253 -253) =      1.14612  eV     1   --> G_3            
     e(254 -254) =      1.14657  eV     1   --> G_3            
     e(255 -255) =      1.14853  eV     1   --> G_4            
     e(256 -256) =      1.14897  eV     1   --> G_4            
     e(257 -257) =      1.19442  eV     1   --> G_3            
     e(258 -258) =      1.20421  eV     1   --> G_4            
     e(259 -259) =      1.20609  eV     1   --> G_4            
     e(260 -260) =      1.21566  eV     1   --> G_3            
     e(261 -261) =      1.24313  eV     1   --> G_3            
     e(262 -262) =      1.25231  eV     1   --> G_3            
     e(263 -263) =      1.25271  eV     1   -->   ?
     e(264 -264) =      1.25804  eV     1   -->   ?
     e(265 -265) =      1.25843  eV     1   --> G_4            
     e(266 -266) =      1.27304  eV     1   --> G_4            
     e(267 -267) =      1.31763  eV     1   --> G_4            
     e(268 -268) =      1.34489  eV     1   --> G_3            
     e(269 -269) =      1.41153  eV     1   --> G_4            
     e(270 -270) =      1.41187  eV     1   --> G_4            
     e(271 -271) =      1.42710  eV     1   --> G_3            
     e(272 -272) =      1.42747  eV     1   --> G_3            

 **************************************************************************

 **************************************************************************

                    xk=(   0.00000,   0.57735,   0.00000  )

     double point group C_2v (mm2) 
     there are  5 classes and  1 irreducible representations
     the character table:

       E     -E     C2    s_v   s_v'
                   -C2   -s_v  -s_v'
G_5    2.00 -2.00  0.00  0.00  0.00

     the symmetry operations in each class and the name of the first element:

     E             1
                                                                 
     -E           -1
                                                                 
      C2  -C2      2   -2
                                                                 
      s_v -s_v     3   -3
                                                                 
      s_v'-s_v'    4   -4
                                                                 

     Band symmetry, C_2v (mm2)  double point group:

     e(  1 -  2) =    -56.57667  eV     2   --> G_5  D_5       
     e(  3 -  4) =    -56.57546  eV     2   --> G_5  D_5       
     e(  5 -  6) =    -56.56969  eV     2   --> G_5  D_5       
     e(  7 -  8) =    -56.56924  eV     2   --> G_5  D_5       
     e(  9 - 10) =    -56.56723  eV     2   --> G_5  D_5       
     e( 11 - 14) =    -56.56338  eV     4   -->   2 G_5  D_5       
     e( 15 - 16) =    -56.56296  eV     2   --> G_5  D_5       
     e( 17 - 18) =    -56.56132  eV     2   --> G_5  D_5       
     e( 19 - 20) =    -34.06731  eV     2   --> G_5  D_5       
     e( 21 - 22) =    -34.06577  eV     2   --> G_5  D_5       
     e( 23 - 24) =    -34.06522  eV     2   --> G_5  D_5       
     e( 25 - 26) =    -34.05411  eV     2   --> G_5  D_5       
     e( 27 - 28) =    -34.05300  eV     2   --> G_5  D_5       
     e( 29 - 30) =    -34.03409  eV     2   --> G_5  D_5       
     e( 31 - 32) =    -34.02809  eV     2   --> G_5  D_5       
     e( 33 - 34) =    -34.00426  eV     2   --> G_5  D_5       
     e( 35 - 36) =    -34.00322  eV     2   --> G_5  D_5       
     e( 37 - 38) =    -32.05068  eV     2   --> G_5  D_5       
     e( 39 - 40) =    -32.04314  eV     2   --> G_5  D_5       
     e( 41 - 42) =    -32.04242  eV     2   --> G_5  D_5       
     e( 43 - 44) =    -32.02386  eV     2   --> G_5  D_5       
     e( 45 - 46) =    -32.02326  eV     2   --> G_5  D_5       
     e( 47 - 48) =    -31.98418  eV     2   --> G_5  D_5       
     e( 49 - 50) =    -31.97838  eV     2   --> G_5  D_5       
     e( 51 - 52) =    -31.94245  eV     2   --> G_5  D_5       
     e( 53 - 54) =    -31.94147  eV     2   --> G_5  D_5       
     e( 55 - 56) =    -31.93156  eV     2   --> G_5  D_5       
     e( 57 - 58) =    -31.93105  eV     2   --> G_5  D_5       
     e( 59 - 60) =    -31.92904  eV     2   --> G_5  D_5       
     e( 61 - 62) =    -31.92798  eV     2   --> G_5  D_5       
     e( 63 - 64) =    -31.92050  eV     2   --> G_5  D_5       
     e( 65 - 66) =    -31.91804  eV     2   --> G_5  D_5       
     e( 67 - 68) =    -31.91537  eV     2   --> G_5  D_5       
     e( 69 - 70) =    -31.89057  eV     2   --> G_5  D_5       
     e( 71 - 72) =    -31.88954  eV     2   --> G_5  D_5       
     e( 73 - 74) =    -14.81331  eV     2   --> G_5  D_5       
     e( 75 - 76) =    -14.81302  eV     2   --> G_5  D_5       
     e( 77 - 78) =    -14.34412  eV     2   --> G_5  D_5       
     e( 79 - 80) =    -14.33370  eV     2   --> G_5  D_5       
     e( 81 - 82) =    -14.02665  eV     2   --> G_5  D_5       
     e( 83 - 84) =    -14.02638  eV     2   --> G_5  D_5       
     e( 85 - 86) =    -13.80929  eV     2   --> G_5  D_5       
     e( 87 - 88) =    -13.80845  eV     2   --> G_5  D_5       
     e( 89 - 90) =    -13.80359  eV     2   --> G_5  D_5       
     e( 91 - 92) =    -13.80334  eV     2   --> G_5  D_5       
     e( 93 - 96) =    -13.77931  eV     4   -->   2 G_5  D_5       
     e( 97 - 98) =    -13.77888  eV     2   --> G_5  D_5       
     e( 99 -100) =    -13.56282  eV     2   --> G_5  D_5       
     e(101 -102) =    -13.55909  eV     2   --> G_5  D_5       
     e(103 -104) =    -13.55883  eV     2   --> G_5  D_5       
     e(105 -106) =    -13.55764  eV     2   --> G_5  D_5       
     e(107 -108) =    -13.55739  eV     2   --> G_5  D_5       
     e(109 -110) =     -6.49817  eV     2   --> G_5  D_5       
     e(111 -112) =     -6.06746  eV     2   --> G_5  D_5       
     e(113 -114) =     -6.06736  eV     2   --> G_5  D_5       
     e(115 -118) =     -6.04113  eV     4   -->   2 G_5  D_5       
     e(119 -120) =     -5.99363  eV     2   --> G_5  D_5       
     e(121 -122) =     -5.99330  eV     2   --> G_5  D_5       
     e(123 -124) =     -5.59220  eV     2   --> G_5  D_5       
     e(125 -126) =     -5.59184  eV     2   --> G_5  D_5       
     e(127 -128) =     -5.59153  eV     2   --> G_5  D_5       
     e(129 -130) =     -5.57572  eV     2   --> G_5  D_5       
     e(131 -132) =     -5.55456  eV     2   --> G_5  D_5       
     e(133 -134) =     -5.48394  eV     2   --> G_5  D_5       
     e(135 -136) =     -5.48368  eV     2   --> G_5  D_5       
     e(137 -138) =     -5.04988  eV     2   --> G_5  D_5       
     e(139 -140) =     -5.02465  eV     2   --> G_5  D_5       
     e(141 -142) =     -4.91180  eV     2   --> G_5  D_5       
     e(143 -144) =     -4.84724  eV     2   --> G_5  D_5       
     e(145 -146) =     -4.84698  eV     2   --> G_5  D_5       
     e(147 -148) =     -4.83301  eV     2   --> G_5  D_5       
     e(149 -150) =     -4.83274  eV     2   --> G_5  D_5       
     e(151 -152) =     -4.51527  eV     2   --> G_5  D_5       
     e(153 -154) =     -4.43290  eV     2   --> G_5  D_5       
     e(155 -156) =     -4.24917  eV     2   --> G_5  D_5       
     e(157 -158) =     -4.24887  eV     2   --> G_5  D_5       
     e(159 -160) =     -4.13127  eV     2   --> G_5  D_5       
     e(161 -162) =     -4.13116  eV     2   --> G_5  D_5       
     e(163 -164) =     -4.02117  eV     2   --> G_5  D_5       
     e(165 -166) =     -4.02105  eV     2   --> G_5  D_5       
     e(167 -168) =     -3.95422  eV     2   --> G_5  D_5       
     e(169 -170) =     -3.91360  eV     2   --> G_5  D_5       
     e(171 -172) =     -3.89968  eV     2   --> G_5  D_5       
     e(173 -174) =     -3.73997  eV     2   --> G_5  D_5       
     e(175 -176) =     -3.73968  eV     2   --> G_5  D_5       
     e(177 -180) =     -3.57407  eV     4   -->   2 G_5  D_5       
     e(181 -184) =     -3.53678  eV     4   -->   2 G_5  D_5       
     e(185 -186) =     -3.10071  eV     2   --> G_5  D_5       
     e(187 -188) =     -3.07914  eV     2   --> G_5  D_5       
     e(189 -190) =     -3.07868  eV     2   --> G_5  D_5       
     e(191 -192) =     -3.03134  eV     2   --> G_5  D_5       
     e(193 -194) =     -3.01149  eV     2   --> G_5  D_5       
     e(195 -196) =     -2.90758  eV     2   --> G_5  D_5       
     e(197 -198) =     -2.90739  eV     2   --> G_5  D_5       
     e(199 -200) =     -2.90048  eV     2   --> G_5  D_5       
     e(201 -202) =     -2.89998  eV     2   --> G_5  D_5       
     e(203 -204) =     -2.86434  eV     2   --> G_5  D_5       
     e(205 -206) =     -2.86417  eV     2   --> G_5  D_5       
     e(207 -208) =     -2.45184  eV     2   --> G_5  D_5       
     e(209 -210) =     -2.39408  eV     2   --> G_5  D_5       
     e(211 -212) =     -2.39392  eV     2   --> G_5  D_5       
     e(213 -214) =     -2.32924  eV     2   --> G_5  D_5       
     e(215 -216) =     -2.32161  eV     2   --> G_5  D_5       
     e(217 -218) =     -1.71098  eV     2   --> G_5  D_5       
     e(219 -220) =     -1.63080  eV     2   --> G_5  D_5       
     e(221 -222) =     -1.55909  eV     2   --> G_5  D_5       
     e(223 -224) =     -1.47407  eV     2   --> G_5  D_5       
     e(225 -226) =     -1.47380  eV     2   --> G_5  D_5       
     e(227 -228) =     -1.36181  eV     2   --> G_5  D_5       
     e(229 -230) =     -1.36157  eV     2   --> G_5  D_5       
     e(231 -232) =     -1.18010  eV     2   --> G_5  D_5       
     e(233 -234) =     -1.17968  eV     2   --> G_5  D_5       
     e(235 -236) =      0.71251  eV     2   --> G_5  D_5       
     e(237 -238) =      0.72580  eV     2   --> G_5  D_5       
     e(239 -240) =      0.95457  eV     2   --> G_5  D_5       
     e(241 -242) =      0.95487  eV     2   --> G_5  D_5       
     e(243 -244) =      0.97612  eV     2   --> G_5  D_5       
     e(245 -246) =      0.97633  eV     2   --> G_5  D_5       
     e(247 -248) =      0.98867  eV     2   --> G_5  D_5       
     e(249 -250) =      0.98887  eV     2   --> G_5  D_5       
     e(251 -252) =      1.05364  eV     2   --> G_5  D_5       
     e(253 -254) =      1.14919  eV     2   --> G_5  D_5       
     e(255 -256) =      1.14963  eV     2   --> G_5  D_5       
     e(257 -258) =      1.19899  eV     2   --> G_5  D_5       
     e(259 -260) =      1.20871  eV     2   --> G_5  D_5       
     e(261 -262) =      1.25513  eV     2   --> G_5  D_5       
     e(263 -264) =      1.25554  eV     2   --> G_5  D_5       
     e(265 -266) =      1.25662  eV     2   --> G_5  D_5       
     e(267 -268) =      1.32977  eV     2   --> G_5  D_5       
     e(269 -270) =      1.41783  eV     2   --> G_5  D_5       
     e(271 -272) =      1.41819  eV     2   --> G_5  D_5       

 **************************************************************************
 
     BANDS        :      1h13m CPU      1h45m WALL

 
   This run was terminated on:  17:21:41   6Sep2020            

=------------------------------------------------------------------------------=
   JOB DONE.
=------------------------------------------------------------------------------=
