
     Program PWSCF v.6.6 starts on  7Sep2020 at 20:27: 3 

     This program is part of the open-source Quantum ESPRESSO suite
     for quantum simulation of materials; please cite
         "P. Giannozzi et al., J. Phys.:Condens. Matter 21 395502 (2009);
         "P. Giannozzi et al., J. Phys.:Condens. Matter 29 465901 (2017);
          URL http://www.quantum-espresso.org", 
     in publications or presentations arising from this work. More details at
     http://www.quantum-espresso.org/quote

     Parallel version (MPI), running on    44 processors

     MPI processes distributed on     1 nodes
     R & G space division:  proc/nbgrp/npool/nimage =      44
     Fft bands division:     nmany     =       1
     Reading input from 1-nscf.in

     Current dimensions of program PWSCF are:
     Max number of different atomic species (ntypx) = 10
     Max number of k-points (npk) =  40000
     Max angular momentum in pseudopotentials (lmaxx) =  3

     Atomic positions and unit cell read from directory:
     ./outdir/nbse2.save/
     Atomic positions from file used, from input discarded
 
     file Nb.pbe-spn-kjpaw_psl.0.3.0.UPF: wavefunction(s)  4S 4P renormalized

     Subspace diagonalization in iterative solution of the eigenvalue problem:
     a serial algorithm will be used

 
     Parallelization info
     --------------------
     sticks:   dense  smooth     PW     G-vecs:    dense   smooth      PW
     Min          15       8      2                 2209      834     132
     Max          16       9      3                 2250      857     159
     Sum         685     361    109                97845    37017    6397
 


     bravais-lattice index     =            4
     lattice parameter (alat)  =       6.5940  a.u.
     unit-cell volume          =    1662.8322 (a.u.)^3
     number of atoms/cell      =            3
     number of atomic types    =            2
     number of electrons       =        25.00
     number of Kohn-Sham states=           17
     kinetic-energy cutoff     =      30.0000  Ry
     charge density cutoff     =     230.0000  Ry
     Exchange-correlation= SLA  PW   PBE  PBE
                           (   1   4   3   4   0   0   0)

     celldm(1)=   6.594010  celldm(2)=   0.000000  celldm(3)=   6.696825
     celldm(4)=   0.000000  celldm(5)=   0.000000  celldm(6)=   0.000000

     crystal axes: (cart. coord. in units of alat)
               a(1) = (   1.000000   0.000000   0.000000 )  
               a(2) = (  -0.500000   0.866025   0.000000 )  
               a(3) = (   0.000000   0.000000   6.696825 )  

     reciprocal axes: (cart. coord. in units 2 pi/alat)
               b(1) = (  1.000000  0.577350  0.000000 )  
               b(2) = (  0.000000  1.154701  0.000000 )  
               b(3) = (  0.000000  0.000000  0.149325 )  


     PseudoPot. # 1 for Nb read from file:
     /home/sinan/q-e/SSSP_precision_pseudos/Nb.pbe-spn-kjpaw_psl.0.3.0.UPF
     MD5 check sum: 411d72ad547312f8017e2943ceca08cc
     Pseudo is Projector augmented-wave + core cor, Zval = 13.0
     Generated using "atomic" code by A. Dal Corso v.5.0.99 svn rev. 10869
     Shape of augmentation charge: PSQ
     Using radial grid of 1227 points,  6 beta functions with: 
                l(1) =   0
                l(2) =   0
                l(3) =   1
                l(4) =   1
                l(5) =   2
                l(6) =   2
     Q(r) pseudized with 0 coefficients 


     PseudoPot. # 2 for Se read from file:
     /home/sinan/q-e/SSSP_precision_pseudos/Se_pbe_v1.uspp.F.UPF
     MD5 check sum: 1b3568f3a8ae88f9a2a0ad0698632c85
     Pseudo is Ultrasoft + core correction, Zval =  6.0
     Generated by new atomic code, or converted to UPF format
     Using radial grid of  877 points,  6 beta functions with: 
                l(1) =   0
                l(2) =   0
                l(3) =   1
                l(4) =   1
                l(5) =   2
                l(6) =   2
     Q(r) pseudized with  8 coefficients,  rinner =    1.300   1.300   1.300
                                                       1.300   1.300

     atomic species   valence    mass     pseudopotential
        Nb            13.00    92.90638     Nb( 1.00)
        Se             6.00    78.96000     Se( 1.00)

     12 Sym. Ops. (no inversion) found



   Cartesian axes

     site n.     atom                  positions (alat units)
         1           Se  tau(   1) = (   0.0000000   0.5773508   3.8310119  )
         2           Nb  tau(   2) = (   0.0000000   0.0000000   3.3484172  )
         3           Se  tau(   3) = (   0.0000000   0.5773508   2.8658222  )

     number of k points=    61 (tetrahedron method)
                       cart. coord. in units 2pi/alat
        k(    1) = (   0.0000000   0.0000000   0.0000000), wk =   0.0034722
        k(    2) = (   0.0000000   0.0481125   0.0000000), wk =   0.0208333
        k(    3) = (   0.0000000   0.0962250   0.0000000), wk =   0.0208333
        k(    4) = (   0.0000000   0.1443376   0.0000000), wk =   0.0208333
        k(    5) = (   0.0000000   0.1924501   0.0000000), wk =   0.0208333
        k(    6) = (   0.0000000   0.2405626   0.0000000), wk =   0.0208333
        k(    7) = (   0.0000000   0.2886751   0.0000000), wk =   0.0208333
        k(    8) = (   0.0000000   0.3367877   0.0000000), wk =   0.0208333
        k(    9) = (   0.0000000   0.3849002   0.0000000), wk =   0.0208333
        k(   10) = (   0.0000000   0.4330127   0.0000000), wk =   0.0208333
        k(   11) = (   0.0000000   0.4811252   0.0000000), wk =   0.0208333
        k(   12) = (   0.0000000   0.5292377   0.0000000), wk =   0.0208333
        k(   13) = (   0.0000000  -0.5773503   0.0000000), wk =   0.0104167
        k(   14) = (   0.0416667   0.0721688   0.0000000), wk =   0.0208333
        k(   15) = (   0.0416667   0.1202813   0.0000000), wk =   0.0416667
        k(   16) = (   0.0416667   0.1683938   0.0000000), wk =   0.0416667
        k(   17) = (   0.0416667   0.2165064   0.0000000), wk =   0.0416667
        k(   18) = (   0.0416667   0.2646189   0.0000000), wk =   0.0416667
        k(   19) = (   0.0416667   0.3127314   0.0000000), wk =   0.0416667
        k(   20) = (   0.0416667   0.3608439   0.0000000), wk =   0.0416667
        k(   21) = (   0.0416667   0.4089564   0.0000000), wk =   0.0416667
        k(   22) = (   0.0416667   0.4570690   0.0000000), wk =   0.0416667
        k(   23) = (   0.0416667   0.5051815   0.0000000), wk =   0.0416667
        k(   24) = (   0.0416667   0.5532940   0.0000000), wk =   0.0416667
        k(   25) = (   0.0833333   0.1443376   0.0000000), wk =   0.0208333
        k(   26) = (   0.0833333   0.1924501   0.0000000), wk =   0.0416667
        k(   27) = (   0.0833333   0.2405626   0.0000000), wk =   0.0416667
        k(   28) = (   0.0833333   0.2886751   0.0000000), wk =   0.0416667
        k(   29) = (   0.0833333   0.3367877   0.0000000), wk =   0.0416667
        k(   30) = (   0.0833333   0.3849002   0.0000000), wk =   0.0416667
        k(   31) = (   0.0833333   0.4330127   0.0000000), wk =   0.0416667
        k(   32) = (   0.0833333   0.4811252   0.0000000), wk =   0.0416667
        k(   33) = (   0.0833333   0.5292377   0.0000000), wk =   0.0416667
        k(   34) = (   0.0833333   0.5773503   0.0000000), wk =   0.0208333
        k(   35) = (   0.1250000   0.2165064   0.0000000), wk =   0.0208333
        k(   36) = (   0.1250000   0.2646189   0.0000000), wk =   0.0416667
        k(   37) = (   0.1250000   0.3127314   0.0000000), wk =   0.0416667
        k(   38) = (   0.1250000   0.3608439   0.0000000), wk =   0.0416667
        k(   39) = (   0.1250000   0.4089564   0.0000000), wk =   0.0416667
        k(   40) = (   0.1250000   0.4570690   0.0000000), wk =   0.0416667
        k(   41) = (   0.1250000   0.5051815   0.0000000), wk =   0.0416667
        k(   42) = (   0.1250000   0.5532940   0.0000000), wk =   0.0416667
        k(   43) = (   0.1666667   0.2886751   0.0000000), wk =   0.0208333
        k(   44) = (   0.1666667   0.3367877   0.0000000), wk =   0.0416667
        k(   45) = (   0.1666667   0.3849002   0.0000000), wk =   0.0416667
        k(   46) = (   0.1666667   0.4330127   0.0000000), wk =   0.0416667
        k(   47) = (   0.1666667   0.4811252   0.0000000), wk =   0.0416667
        k(   48) = (   0.1666667   0.5292377   0.0000000), wk =   0.0416667
        k(   49) = (   0.1666667   0.5773503   0.0000000), wk =   0.0208333
        k(   50) = (   0.2083333   0.3608439   0.0000000), wk =   0.0208333
        k(   51) = (   0.2083333   0.4089564   0.0000000), wk =   0.0416667
        k(   52) = (   0.2083333   0.4570690   0.0000000), wk =   0.0416667
        k(   53) = (   0.2083333   0.5051815   0.0000000), wk =   0.0416667
        k(   54) = (   0.2083333   0.5532940   0.0000000), wk =   0.0416667
        k(   55) = (   0.2500000   0.4330127   0.0000000), wk =   0.0208333
        k(   56) = (   0.2500000   0.4811252   0.0000000), wk =   0.0416667
        k(   57) = (   0.2500000   0.5292377   0.0000000), wk =   0.0416667
        k(   58) = (   0.2500000   0.5773503   0.0000000), wk =   0.0208333
        k(   59) = (   0.2916667   0.5051815   0.0000000), wk =   0.0208333
        k(   60) = (   0.2916667   0.5532940   0.0000000), wk =   0.0416667
        k(   61) = (   0.3333333   0.5773503   0.0000000), wk =   0.0069444

     Dense  grid:    97845 G-vectors     FFT dimensions: (  32,  32, 216)

     Smooth grid:    37017 G-vectors     FFT dimensions: (  24,  24, 160)

     Estimated max dynamical RAM per process >       9.65 MB

     Estimated total dynamical RAM >     424.40 MB

     Check: negative core charge=   -0.000003

     The potential is recalculated from file :
     ./outdir/nbse2.save/charge-density


     negative rho (up, down):  1.697E-03 0.000E+00
     Starting wfcs are   18 randomized atomic wfcs
     Checking if some PAW data can be deallocated... 

     Band Structure Calculation
     Davidson diagonalization with overlap

     ethr =  4.00E-11,  avg # of iterations = 35.6

     total cpu time spent up to now is       14.2 secs

     End of band structure calculation

          k = 0.0000 0.0000 0.0000 (  4589 PWs)   bands (ev):

   -57.0281 -33.0148 -32.9761 -32.9761 -15.1498 -14.1914  -6.4483  -3.5392
    -3.5392  -2.9808  -2.5578  -2.5578  -1.0978   1.2011   1.2011   1.3757
     1.3757

          k = 0.0000 0.0481 0.0000 (  4594 PWs)   bands (ev):

   -57.0278 -33.0139 -32.9800 -32.9769 -15.1308 -14.1827  -6.4223  -3.6048
    -3.5195  -3.0808  -2.5958  -2.4981  -1.1120   1.1467   1.2423   1.2893
     1.3492

          k = 0.0000 0.0962 0.0000 (  4606 PWs)   bands (ev):

   -57.0269 -33.0115 -32.9915 -32.9796 -15.0747 -14.1571  -6.3465  -3.7886
    -3.4617  -3.2915  -2.7020  -2.4145  -1.1618   1.0278   1.0977   1.2744
     1.3577

          k = 0.0000 0.1443 0.0000 (  4622 PWs)   bands (ev):

   -57.0255 -33.0097 -33.0076 -32.9838 -14.9839 -14.1156  -6.2262  -4.0590
    -3.5455  -3.3690  -2.8587  -2.3888  -1.2591   0.9010   0.9304   1.1649
     1.5247

          k = 0.0000 0.1925 0.0000 (  4602 PWs)   bands (ev):

   -57.0235 -33.0332 -33.0024 -32.9891 -14.8623 -14.0600  -6.0724  -4.3796
    -3.8254  -3.2464  -3.0427  -2.4382  -1.4099   0.7599   0.9206   1.0397
     1.7199

          k = 0.0000 0.2406 0.0000 (  4612 PWs)   bands (ev):

   -57.0212 -33.0604 -32.9965 -32.9953 -14.7156 -13.9932  -5.9069  -4.7113
    -4.1266  -3.2372  -3.1036  -2.5435  -1.6042   0.6960   0.9148   1.0097
     1.9172

          k = 0.0000 0.2887 0.0000 (  4616 PWs)   bands (ev):

   -57.0188 -33.0894 -33.0020 -32.9901 -14.5514 -13.9187  -5.7780  -5.0001
    -4.4398  -3.4266  -2.9501  -2.6697  -1.8043   0.7030   0.8069   1.1754
     2.1010

          k = 0.0000 0.3368 0.0000 (  4624 PWs)   bands (ev):

   -57.0164 -33.1184 -33.0087 -32.9837 -14.3790 -13.8408  -5.7950  -5.1407
    -4.7504  -3.5999  -2.7986  -2.7885  -1.9657   0.7254   0.7586   1.3832
     2.2603

          k = 0.0000 0.3849 0.0000 (  4612 PWs)   bands (ev):

   -57.0140 -33.1451 -33.0148 -32.9777 -14.2098 -13.7651  -5.9839  -5.1140
    -5.0395  -3.7498  -2.8856  -2.6608  -2.0530   0.6787   0.8436   1.5978
     2.3896

          k = 0.0000 0.4330 0.0000 (  4622 PWs)   bands (ev):

   -57.0121 -33.1680 -33.0201 -32.9725 -14.0569 -13.6973  -6.2103  -5.2881
    -5.0541  -3.8714  -2.9574  -2.5473  -2.0568   0.6616   0.9363   1.7885
     2.4866

          k = 0.0000 0.4811 0.0000 (  4610 PWs)   bands (ev):

   -57.0105 -33.1855 -33.0242 -32.9685 -13.9340 -13.6435  -6.4001  -5.4785
    -5.0166  -3.9606  -3.0053  -2.4639  -1.9998   0.6670   1.0237   1.9360
     2.5533

          k = 0.0000 0.5292 0.0000 (  4636 PWs)   bands (ev):

   -57.0097 -33.1966 -33.0268 -32.9661 -13.8541 -13.6087  -6.5241  -5.5985
    -5.0022  -4.0149  -3.0326  -2.4140  -1.9329   0.6768   1.0837   2.0249
     2.5924

          k = 0.0000-0.5774 0.0000 (  4632 PWs)   bands (ev):

   -57.0094 -33.2004 -33.0277 -32.9652 -13.8263 -13.5967  -6.5670  -5.6392
    -4.9990  -4.0332  -3.0410  -2.3974  -1.9032   0.6818   1.1067   2.0562
     2.6052

          k = 0.0417 0.0722 0.0000 (  4595 PWs)   bands (ev):

   -57.0272 -33.0123 -32.9877 -32.9787 -15.0933 -14.1655  -6.3714  -3.7285
    -3.4811  -3.2276  -2.6771  -2.4251  -1.1441   1.0577   1.1544   1.2972
     1.3240

          k = 0.0417 0.1203 0.0000 (  4611 PWs)   bands (ev):

   -57.0260 -33.0091 -33.0024 -32.9823 -15.0198 -14.1320  -6.2731  -3.9537
    -3.4433  -3.4076  -2.8314  -2.3628  -1.2174   0.9441   0.9680   1.2028
     1.4710

          k = 0.0417 0.1684 0.0000 (  4610 PWs)   bands (ev):

   -57.0243 -33.0230 -33.0046 -32.9873 -14.9136 -14.0834  -6.1353  -4.2459
    -3.6948  -3.3038  -3.0262  -2.3625  -1.3422   0.8041   0.8857   1.0852
     1.6587

          k = 0.0417 0.2165 0.0000 (  4606 PWs)   bands (ev):

   -57.0222 -33.0481 -32.9990 -32.9933 -14.7793 -14.0222  -5.9730  -4.5686
    -3.9754  -3.2327  -3.1775  -2.4307  -1.5159   0.7004   0.9223   0.9673
     1.8593

          k = 0.0417 0.2646 0.0000 (  4610 PWs)   bands (ev):

   -57.0198 -33.0759 -33.0000 -32.9929 -14.6237 -13.9513  -5.8180  -4.8795
    -4.2803  -3.4278  -3.0405  -2.5446  -1.7122   0.6584   0.8712   1.0486
     2.0518

          k = 0.0417 0.3127 0.0000 (  4617 PWs)   bands (ev):

   -57.0174 -33.1046 -33.0070 -32.9865 -14.4551 -13.8749  -5.7480  -5.1001
    -4.5954  -3.5998  -2.9065  -2.6734  -1.8867   0.6516   0.8226   1.2370
     2.2209

          k = 0.0417 0.3608 0.0000 (  4616 PWs)   bands (ev):

   -57.0150 -33.1321 -33.0137 -32.9802 -14.2839 -13.7978  -5.8659  -5.1350
    -4.9004  -3.7450  -2.7935  -2.7897  -1.9960   0.6475   0.8419   1.4542
     2.3568

          k = 0.0417 0.4090 0.0000 (  4632 PWs)   bands (ev):

   -57.0130 -33.1568 -33.0197 -32.9747 -14.1223 -13.7258  -6.0854  -5.1745
    -5.0759  -3.8626  -2.8925  -2.6970  -2.0191   0.6506   0.9038   1.6664
     2.4547

          k = 0.0417 0.4571 0.0000 (  4620 PWs)   bands (ev):

   -57.0112 -33.1767 -33.0246 -32.9701 -13.9837 -13.6645  -6.2948  -5.3977
    -5.0250  -3.9520  -2.9656  -2.6249  -1.9707   0.6661   0.9832   1.8527
     2.5135

          k = 0.0417 0.5052 0.0000 (  4629 PWs)   bands (ev):

   -57.0100 -33.1909 -33.0281 -32.9669 -13.8817 -13.6199  -6.4513  -5.5555
    -5.0010  -4.0127  -3.0130  -2.5722  -1.8955   0.6823   1.0558   1.9919
     2.5384

          k = 0.0417 0.5533 0.0000 (  4640 PWs)   bands (ev):

   -57.0094 -33.1983 -33.0299 -32.9653 -13.8274 -13.5963  -6.5343  -5.6371
    -4.9939  -4.0432  -3.0362  -2.5439  -1.8409   0.6901   1.1020   2.0677
     2.5437

          k = 0.0833 0.1443 0.0000 (  4605 PWs)   bands (ev):

   -57.0246 -33.0193 -33.0053 -32.9868 -14.9309 -14.0913  -6.1567  -4.1965
    -3.6361  -3.3263  -3.0528  -2.3145  -1.3188   0.8229   0.8624   1.0983
     1.6470

          k = 0.0833 0.1925 0.0000 (  4601 PWs)   bands (ev):

   -57.0227 -33.0410 -33.0003 -32.9929 -14.8120 -14.0370  -6.0078  -4.4848
    -3.8613  -3.3061  -3.2263  -2.3192  -1.4671   0.7005   0.8435   0.9930
     1.8497

          k = 0.0833 0.2406 0.0000 (  4614 PWs)   bands (ev):

   -57.0205 -33.0662 -33.0000 -32.9947 -14.6686 -13.9715  -5.8479  -4.7826
    -4.1293  -3.5365  -3.1219  -2.3865  -1.6447   0.6161   0.9123   0.9150
     2.0499

          k = 0.0833 0.2887 0.0000 (  4621 PWs)   bands (ev):

   -57.0182 -33.0931 -33.0077 -32.9885 -14.5082 -13.8985  -5.7273  -5.0347
    -4.4369  -3.7148  -3.0299  -2.4998  -1.8115   0.5713   0.8801   1.0598
     2.2280

          k = 0.0833 0.3368 0.0000 (  4611 PWs)   bands (ev):

   -57.0158 -33.1198 -33.0152 -32.9822 -14.3401 -13.8224  -5.7563  -5.1359
    -4.7558  -3.8448  -2.9664  -2.6333  -1.9219   0.5678   0.8841   1.2596
     2.3695

          k = 0.0833 0.3849 0.0000 (  4613 PWs)   bands (ev):

   -57.0136 -33.1445 -33.0223 -32.9764 -14.1755 -13.7482  -5.9403  -5.0897
    -5.0555  -3.9384  -2.9321  -2.7647  -1.9509   0.6025   0.9107   1.4812
     2.4633

          k = 0.0833 0.4330 0.0000 (  4629 PWs)   bands (ev):

   -57.0117 -33.1658 -33.0285 -32.9715 -14.0270 -13.6819  -6.1509  -5.3122
    -5.0261  -4.0040  -2.9083  -2.8788  -1.9087   0.6565   0.9537   1.6985
     2.5040

          k = 0.0833 0.4811 0.0000 (  4619 PWs)   bands (ev):

   -57.0102 -33.1819 -33.0331 -32.9676 -13.9079 -13.6292  -6.3256  -5.5078
    -4.9905  -4.0471  -2.9652  -2.8829  -1.8284   0.6942   1.0227   1.8970
     2.4934

          k = 0.0833 0.5292 0.0000 (  4631 PWs)   bands (ev):

   -57.0094 -33.1922 -33.0360 -32.9653 -13.8305 -13.5952  -6.4395  -5.6303
    -4.9787  -4.0718  -3.0193  -2.8612  -1.7528   0.7016   1.0970   2.0545
     2.4448

          k = 0.0833 0.5774 0.0000 (  4624 PWs)   bands (ev):

   -57.0090 -33.1956 -33.0370 -32.9645 -13.8037 -13.5834  -6.4790  -5.6720
    -4.9768  -4.0795  -3.0374  -2.8527  -1.7215   0.7006   1.1313   2.1267
     2.4092

          k = 0.1250 0.2165 0.0000 (  4597 PWs)   bands (ev):

   -57.0207 -33.0626 -33.0003 -32.9952 -14.6838 -13.9784  -5.8586  -4.7451
    -4.0519  -3.6066  -3.1542  -2.3186  -1.6195   0.6009   0.8542   0.9291
     2.0557

          k = 0.1250 0.2646 0.0000 (  4608 PWs)   bands (ev):

   -57.0185 -33.0863 -33.0088 -32.9895 -14.5354 -13.9106  -5.7211  -4.9856
    -4.3062  -3.8395  -3.1086  -2.3790  -1.7674   0.5259   0.9075   0.9399
     2.2438

          k = 0.1250 0.3127 0.0000 (  4617 PWs)   bands (ev):

   -57.0163 -33.1105 -33.0178 -32.9835 -14.3752 -13.8375  -5.6810  -5.1225
    -4.6211  -3.9773  -3.1074  -2.4893  -1.8704   0.5027   0.9153   1.0934
     2.3943

          k = 0.1250 0.3608 0.0000 (  4608 PWs)   bands (ev):

   -57.0140 -33.1336 -33.0265 -32.9777 -14.2129 -13.7638  -5.8065  -5.0968
    -4.9407  -4.0540  -3.1467  -2.6267  -1.9018   0.5439   0.9310   1.2917
     2.4961

          k = 0.1250 0.4090 0.0000 (  4626 PWs)   bands (ev):

   -57.0121 -33.1543 -33.0344 -32.9726 -14.0605 -13.6949  -5.9947  -5.2271
    -5.0216  -4.0950  -3.1960  -2.7683  -1.8673   0.6297   0.9459   1.5078
     2.5394

          k = 0.1250 0.4571 0.0000 (  4636 PWs)   bands (ev):

   -57.0105 -33.1712 -33.0409 -32.9684 -13.9303 -13.6364  -6.1674  -5.4584
    -4.9718  -4.1123  -3.2275  -2.8945  -1.7880   0.6985   0.9953   1.7209
     2.5245

          k = 0.1250 0.5052 0.0000 (  4623 PWs)   bands (ev):

   -57.0093 -33.1830 -33.0455 -32.9653 -13.8347 -13.5937  -6.2950  -5.6200
    -4.9540  -4.1155  -3.2379  -2.9893  -1.6955   0.6972   1.1005   1.9145
     2.4633

          k = 0.1250 0.5533 0.0000 (  4622 PWs)   bands (ev):

   -57.0087 -33.1891 -33.0478 -32.9638 -13.7841 -13.5712  -6.3626  -5.7033
    -4.9520  -4.1143  -3.2387  -3.0408  -1.6322   0.6722   1.1879   2.0575
     2.3835

          k = 0.1667 0.2887 0.0000 (  4618 PWs)   bands (ev):

   -57.0164 -33.1070 -33.0190 -32.9840 -14.3871 -13.8426  -5.6548  -5.1138
    -4.5549  -4.0463  -3.1612  -2.4321  -1.8521   0.4789   0.9257   1.0284
     2.4051

          k = 0.1667 0.3368 0.0000 (  4606 PWs)   bands (ev):

   -57.0142 -33.1269 -33.0297 -32.9784 -14.2323 -13.7717  -5.7231  -5.0991
    -4.8597  -4.1440  -3.2758  -2.5385  -1.8773   0.5073   0.9442   1.1743
     2.5210

          k = 0.1667 0.3849 0.0000 (  4619 PWs)   bands (ev):

   -57.0123 -33.1453 -33.0401 -32.9732 -14.0816 -13.7028  -5.8671  -5.1581
    -5.0147  -4.1806  -3.4147  -2.6771  -1.8456   0.6021   0.9490   1.3553
     2.5805

          k = 0.1667 0.4330 0.0000 (  4619 PWs)   bands (ev):

   -57.0106 -33.1607 -33.0492 -32.9688 -13.9466 -13.6412  -6.0110  -5.4141
    -4.9469  -4.1818  -3.5333  -2.8232  -1.7682   0.6928   0.9836   1.5475
     2.5873

          k = 0.1667 0.4811 0.0000 (  4620 PWs)   bands (ev):

   -57.0093 -33.1724 -33.0563 -32.9653 -13.8390 -13.5922  -6.1262  -5.6084
    -4.9200  -4.1636  -3.6089  -2.9530  -1.6653   0.6767   1.1140   1.7274
     2.5525

          k = 0.1667 0.5292 0.0000 (  4612 PWs)   bands (ev):

   -57.0085 -33.1797 -33.0608 -32.9631 -13.7694 -13.5606  -6.1997  -5.7295
    -4.9199  -4.1422  -3.6447  -3.0441  -1.5712   0.6130   1.2598   1.8680
     2.4976

          k = 0.1667 0.5774 0.0000 (  4614 PWs)   bands (ev):

   -57.0082 -33.1822 -33.0623 -32.9624 -13.7453 -13.5497  -6.2250  -5.7707
    -4.9233  -4.1327  -3.6546  -3.0774  -1.5323   0.5817   1.3208   1.9252
     2.4676

          k = 0.2083 0.3608 0.0000 (  4626 PWs)   bands (ev):

   -57.0124 -33.1417 -33.0425 -32.9735 -14.0889 -13.7055  -5.8167  -5.1304
    -5.0110  -4.2164  -3.4982  -2.6419  -1.8397   0.5903   0.9517   1.2973
     2.5968

          k = 0.2083 0.4090 0.0000 (  4604 PWs)   bands (ev):

   -57.0106 -33.1538 -33.0548 -32.9690 -13.9551 -13.6436  -5.9090  -5.3868
    -4.9253  -4.2265  -3.7227  -2.7785  -1.7610   0.6851   0.9811   1.4451
     2.6304

          k = 0.2083 0.4571 0.0000 (  4596 PWs)   bands (ev):

   -57.0092 -33.1631 -33.0656 -32.9653 -13.8420 -13.5911  -5.9794  -5.5990
    -4.8793  -4.2010  -3.9037  -2.9225  -1.6506   0.6564   1.1291   1.5892
     2.6302

          k = 0.2083 0.5052 0.0000 (  4606 PWs)   bands (ev):

   -57.0083 -33.1693 -33.0736 -32.9627 -13.7597 -13.5529  -6.0231  -5.7488
    -4.8785  -4.1620  -4.0152  -3.0456  -1.5322   0.5516   1.3204   1.7067
     2.6111

          k = 0.2083 0.5533 0.0000 (  4600 PWs)   bands (ev):

   -57.0077 -33.1724 -33.0778 -32.9614 -13.7162 -13.5327  -6.0430  -5.8261
    -4.8942  -4.1324  -4.0625  -3.1185  -1.4499   0.4698   1.4499   1.7746
     2.5937

          k = 0.2500 0.4330 0.0000 (  4594 PWs)   bands (ev):

   -57.0092 -33.1592 -33.0695 -32.9653 -13.8431 -13.5907  -5.9187  -5.5954
    -4.8564  -4.2153  -4.0244  -2.9105  -1.6465   0.6468   1.1343   1.5387
     2.6600

          k = 0.2500 0.4811 0.0000 (  4589 PWs)   bands (ev):

   -57.0081 -33.1618 -33.0823 -32.9625 -13.7549 -13.5487  -5.8968  -5.7590
    -4.8317  -4.2676  -4.1723  -3.0454  -1.5114   0.5139   1.3548   1.6180
     2.6785

          k = 0.2500 0.5292 0.0000 (  4587 PWs)   bands (ev):

   -57.0074 -33.1624 -33.0915 -32.9607 -13.6983 -13.5217  -5.8632  -5.8597
    -4.8604  -4.4038  -4.1250  -3.1507  -1.3901   0.3791   1.5402   1.6683
     2.6907

          k = 0.2500 0.5774 0.0000 (  4592 PWs)   bands (ev):

   -57.0072 -33.1624 -33.0948 -32.9601 -13.6788 -13.5124  -5.8983  -5.8411
    -4.8874  -4.4405  -4.1040  -3.1916  -1.3392   0.3213   1.6132   1.6852
     2.6947

          k = 0.2917 0.5052 0.0000 (  4596 PWs)   bands (ev):

   -57.0074 -33.1575 -33.0976 -32.9606 -13.6923 -13.5180  -5.8758  -5.7732
    -4.8313  -4.5628  -4.1211  -3.1630  -1.3685   0.3442   1.5716   1.6296
     2.7263

          k = 0.2917 0.5533 0.0000 (  4596 PWs)   bands (ev):

   -57.0070 -33.1530 -33.1078 -32.9596 -13.6596 -13.5017  -5.9370  -5.6550
    -4.9284  -4.6740  -4.0801  -3.2385  -1.2681   0.2239   1.6330   1.7072
     2.7556

          k = 0.3333 0.5774 0.0000 (  4614 PWs)   bands (ev):

   -57.0069 -33.1473 -33.1161 -32.9591 -13.6463 -13.4949  -5.9628  -5.5172
    -5.0596  -4.7269  -4.0593  -3.2739  -1.2180   0.1593   1.6194   1.7680
     2.7804

     the Fermi energy is    -1.7489 ev
     (compare with:    -1.6602 eV, computed in scf)

     Writing output data file ./outdir/nbse2.save/
 
     init_run     :      0.26s CPU      0.36s WALL (       1 calls)
     electrons    :     11.02s CPU     12.49s WALL (       1 calls)

     Called by init_run:
     wfcinit      :      0.00s CPU      0.00s WALL (       1 calls)
     potinit      :      0.08s CPU      0.10s WALL (       1 calls)
     hinit0       :      0.12s CPU      0.17s WALL (       1 calls)

     Called by electrons:
     c_bands      :     10.95s CPU     12.41s WALL (       1 calls)
     v_of_rho     :      0.00s CPU      0.01s WALL (       1 calls)
     newd         :      0.04s CPU      0.06s WALL (       1 calls)
     PAW_pot      :      0.07s CPU      0.08s WALL (       1 calls)

     Called by c_bands:
     init_us_2    :      0.01s CPU      0.01s WALL (      61 calls)
     cegterg      :     10.54s CPU     11.93s WALL (     122 calls)

     Called by *egterg:
     cdiaghg      :      1.14s CPU      1.15s WALL (    2233 calls)
     h_psi        :      8.46s CPU      9.81s WALL (    2355 calls)
     s_psi        :      0.16s CPU      0.16s WALL (    2355 calls)
     g_psi        :      0.03s CPU      0.04s WALL (    2172 calls)

     Called by h_psi:
     h_psi:calbec :      0.32s CPU      0.32s WALL (    2355 calls)
     vloc_psi     :      7.97s CPU      9.29s WALL (    2355 calls)
     add_vuspsi   :      0.16s CPU      0.17s WALL (    2355 calls)

     General routines
     calbec       :      0.30s CPU      0.31s WALL (    2355 calls)
     fft          :      0.02s CPU      0.06s WALL (      13 calls)
     ffts         :      0.00s CPU      0.00s WALL (       1 calls)
     fftw         :      7.55s CPU      8.87s WALL (   71638 calls)
     interpolate  :      0.00s CPU      0.00s WALL (       1 calls)
     davcio       :      0.02s CPU      0.01s WALL (     122 calls)
 
     Parallel routines
     fft_scatt_xy :      0.27s CPU      0.37s WALL (   71652 calls)
     fft_scatt_yz :      3.85s CPU      4.84s WALL (   71652 calls)
 
     PWSCF        :     13.02s CPU     14.79s WALL

 
   This run was terminated on:  20:27:18   7Sep2020            

=------------------------------------------------------------------------------=
   JOB DONE.
=------------------------------------------------------------------------------=
