
     Program PWSCF v.6.6 starts on  7Sep2020 at 20:26:57 

     This program is part of the open-source Quantum ESPRESSO suite
     for quantum simulation of materials; please cite
         "P. Giannozzi et al., J. Phys.:Condens. Matter 21 395502 (2009);
         "P. Giannozzi et al., J. Phys.:Condens. Matter 29 465901 (2017);
          URL http://www.quantum-espresso.org", 
     in publications or presentations arising from this work. More details at
     http://www.quantum-espresso.org/quote

     Parallel version (MPI), running on    44 processors

     MPI processes distributed on     1 nodes
     R & G space division:  proc/nbgrp/npool/nimage =      44
     Fft bands division:     nmany     =       1
     Reading input from 1-scf.in

     Current dimensions of program PWSCF are:
     Max number of different atomic species (ntypx) = 10
     Max number of k-points (npk) =  40000
     Max angular momentum in pseudopotentials (lmaxx) =  3
     file Nb.pbe-spn-kjpaw_psl.0.3.0.UPF: wavefunction(s)  4S 4P renormalized

     Subspace diagonalization in iterative solution of the eigenvalue problem:
     a serial algorithm will be used

 
     Parallelization info
     --------------------
     sticks:   dense  smooth     PW     G-vecs:    dense   smooth      PW
     Min          15       6      2                 2149      618      99
     Max          16       7      3                 2178      651     118
     Sum         673     301     91                94891    28125    4801
 


     bravais-lattice index     =            4
     lattice parameter (alat)  =       6.5940  a.u.
     unit-cell volume          =    1662.8322 (a.u.)^3
     number of atoms/cell      =            3
     number of atomic types    =            2
     number of electrons       =        25.00
     number of Kohn-Sham states=           17
     kinetic-energy cutoff     =      25.0000  Ry
     charge density cutoff     =     225.0000  Ry
     convergence threshold     =      1.0E-06
     mixing beta               =       0.4000
     number of iterations used =            8  plain     mixing
     Exchange-correlation= SLA  PW   PBE  PBE
                           (   1   4   3   4   0   0   0)

     celldm(1)=   6.594010  celldm(2)=   0.000000  celldm(3)=   6.696825
     celldm(4)=   0.000000  celldm(5)=   0.000000  celldm(6)=   0.000000

     crystal axes: (cart. coord. in units of alat)
               a(1) = (   1.000000   0.000000   0.000000 )  
               a(2) = (  -0.500000   0.866025   0.000000 )  
               a(3) = (   0.000000   0.000000   6.696825 )  

     reciprocal axes: (cart. coord. in units 2 pi/alat)
               b(1) = (  1.000000  0.577350  0.000000 )  
               b(2) = (  0.000000  1.154701  0.000000 )  
               b(3) = (  0.000000  0.000000  0.149325 )  


     PseudoPot. # 1 for Nb read from file:
     /home/sinan/q-e/SSSP_precision_pseudos/Nb.pbe-spn-kjpaw_psl.0.3.0.UPF
     MD5 check sum: 411d72ad547312f8017e2943ceca08cc
     Pseudo is Projector augmented-wave + core cor, Zval = 13.0
     Generated using "atomic" code by A. Dal Corso v.5.0.99 svn rev. 10869
     Shape of augmentation charge: PSQ
     Using radial grid of 1227 points,  6 beta functions with: 
                l(1) =   0
                l(2) =   0
                l(3) =   1
                l(4) =   1
                l(5) =   2
                l(6) =   2
     Q(r) pseudized with 0 coefficients 


     PseudoPot. # 2 for Se read from file:
     /home/sinan/q-e/SSSP_precision_pseudos/Se_pbe_v1.uspp.F.UPF
     MD5 check sum: 1b3568f3a8ae88f9a2a0ad0698632c85
     Pseudo is Ultrasoft + core correction, Zval =  6.0
     Generated by new atomic code, or converted to UPF format
     Using radial grid of  877 points,  6 beta functions with: 
                l(1) =   0
                l(2) =   0
                l(3) =   1
                l(4) =   1
                l(5) =   2
                l(6) =   2
     Q(r) pseudized with  8 coefficients,  rinner =    1.300   1.300   1.300
                                                       1.300   1.300

     atomic species   valence    mass     pseudopotential
        Nb            13.00    92.90638     Nb( 1.00)
        Se             6.00    78.96000     Se( 1.00)

     12 Sym. Ops. (no inversion) found



   Cartesian axes

     site n.     atom                  positions (alat units)
         1           Se  tau(   1) = (   0.0000000   0.5773508   3.8310119  )
         2           Nb  tau(   2) = (   0.0000000   0.0000000   3.3484172  )
         3           Se  tau(   3) = (   0.0000000   0.5773508   2.8658222  )

     number of k points=     4  Gaussian smearing, width (Ry)=  0.0100
                       cart. coord. in units 2pi/alat
        k(    1) = (   0.0000000   0.0000000   0.0000000), wk =   0.1250000
        k(    2) = (   0.0000000   0.2886751   0.0000000), wk =   0.7500000
        k(    3) = (   0.0000000  -0.5773503   0.0000000), wk =   0.3750000
        k(    4) = (   0.2500000   0.4330127   0.0000000), wk =   0.7500000

     Dense  grid:    94891 G-vectors     FFT dimensions: (  32,  32, 216)

     Smooth grid:    28125 G-vectors     FFT dimensions: (  24,  24, 144)

     Estimated max dynamical RAM per process >      10.05 MB

     Estimated total dynamical RAM >     442.10 MB

     Check: negative core charge=   -0.000002

     Initial potential from superposition of free atoms

     starting charge   24.99774, renormalised to   25.00000

     negative rho (up, down):  1.970E-03 0.000E+00
     Starting wfcs are   18 randomized atomic wfcs
     Checking if some PAW data can be deallocated... 

     total cpu time spent up to now is        1.9 secs

     Self-consistent Calculation

     iteration #  1     ecut=    25.00 Ry     beta= 0.40
     Davidson diagonalization with overlap
     ethr =  1.00E-02,  avg # of iterations =  2.2

     negative rho (up, down):  1.755E-03 0.000E+00

     total cpu time spent up to now is        2.6 secs

     total energy              =    -421.44453724 Ry
     estimated scf accuracy    <       0.47848188 Ry

     iteration #  2     ecut=    25.00 Ry     beta= 0.40
     Davidson diagonalization with overlap
     ethr =  1.91E-03,  avg # of iterations =  2.0

     negative rho (up, down):  1.974E-03 0.000E+00

     total cpu time spent up to now is        3.2 secs

     total energy              =    -421.39213958 Ry
     estimated scf accuracy    <       1.45859254 Ry

     iteration #  3     ecut=    25.00 Ry     beta= 0.40
     Davidson diagonalization with overlap
     ethr =  1.91E-03,  avg # of iterations =  2.0

     negative rho (up, down):  1.764E-03 0.000E+00

     total cpu time spent up to now is        3.6 secs

     total energy              =    -421.60316052 Ry
     estimated scf accuracy    <       0.05191943 Ry

     iteration #  4     ecut=    25.00 Ry     beta= 0.40
     Davidson diagonalization with overlap
     ethr =  2.08E-04,  avg # of iterations =  1.2

     negative rho (up, down):  1.727E-03 0.000E+00

     total cpu time spent up to now is        4.0 secs

     total energy              =    -421.60856379 Ry
     estimated scf accuracy    <       0.00251729 Ry

     iteration #  5     ecut=    25.00 Ry     beta= 0.40
     Davidson diagonalization with overlap
     ethr =  1.01E-05,  avg # of iterations =  2.0

     negative rho (up, down):  1.730E-03 0.000E+00

     total cpu time spent up to now is        4.3 secs

     total energy              =    -421.60885736 Ry
     estimated scf accuracy    <       0.00035221 Ry

     iteration #  6     ecut=    25.00 Ry     beta= 0.40
     Davidson diagonalization with overlap
     ethr =  1.41E-06,  avg # of iterations =  2.5

     negative rho (up, down):  1.714E-03 0.000E+00

     total cpu time spent up to now is        4.6 secs

     total energy              =    -421.60888093 Ry
     estimated scf accuracy    <       0.00016459 Ry

     iteration #  7     ecut=    25.00 Ry     beta= 0.40
     Davidson diagonalization with overlap
     ethr =  6.58E-07,  avg # of iterations =  2.0

     negative rho (up, down):  1.706E-03 0.000E+00

     total cpu time spent up to now is        4.9 secs

     total energy              =    -421.60891350 Ry
     estimated scf accuracy    <       0.00001344 Ry

     iteration #  8     ecut=    25.00 Ry     beta= 0.40
     Davidson diagonalization with overlap
     ethr =  5.38E-08,  avg # of iterations =  4.0

     negative rho (up, down):  1.697E-03 0.000E+00

     total cpu time spent up to now is        5.4 secs

     End of self-consistent calculation

          k = 0.0000 0.0000 0.0000 (  3467 PWs)   bands (ev):

   -57.0224 -32.9978 -32.9540 -32.9540 -15.1542 -14.1924  -6.4387  -3.4689
    -3.4688  -2.9801  -2.4977  -2.4977  -0.9959   1.2797   1.2797   1.4535
     1.4535

          k = 0.0000 0.2887 0.0000 (  3507 PWs)   bands (ev):

   -57.0138 -33.0727 -32.9841 -32.9726 -14.5546 -13.9199  -5.7600  -4.9857
    -4.4154  -3.3773  -2.9043  -2.6659  -1.7159   0.8002   0.9065   1.2776
     2.2019

          k = 0.0000-0.5774 0.0000 (  3532 PWs)   bands (ev):

   -57.0048 -33.1878 -33.0126 -32.9473 -13.8283 -13.5979  -6.5634  -5.6291
    -4.9764  -3.9902  -3.0216  -2.3906  -1.8454   0.8246   1.2501   2.1378
     2.7142

          k = 0.2500 0.4330 0.0000 (  3499 PWs)   bands (ev):

   -57.0045 -33.1454 -33.0520 -32.9474 -13.8445 -13.5918  -5.9071  -5.5735
    -4.8424  -4.1954  -4.0122  -2.8934  -1.5509   0.7714   1.2664   1.6442
     2.7748

     the Fermi energy is    -1.6602 ev

!    total energy              =    -421.60892025 Ry
     estimated scf accuracy    <       0.00000043 Ry
     smearing contrib. (-TS)   =      -0.00306489 Ry
     internal energy E=F+TS    =    -421.60585537 Ry

     The total energy is F=E-TS. E is the sum of the following terms:
     one-electron contribution =   -1033.66444374 Ry
     hartree contribution      =     518.30124384 Ry
     xc contribution           =     -88.25136035 Ry
     ewald contribution        =     390.45742725 Ry
     one-center paw contrib.   =    -208.44872236 Ry

     convergence has been achieved in   8 iterations

     Writing output data file ./outdir/nbse2.save/
 
     init_run     :      0.30s CPU      0.43s WALL (       1 calls)
     electrons    :      2.76s CPU      3.53s WALL (       1 calls)

     Called by init_run:
     wfcinit      :      0.02s CPU      0.02s WALL (       1 calls)
     potinit      :      0.09s CPU      0.11s WALL (       1 calls)
     hinit0       :      0.10s CPU      0.16s WALL (       1 calls)

     Called by electrons:
     c_bands      :      0.68s CPU      0.96s WALL (       8 calls)
     sum_band     :      0.62s CPU      0.74s WALL (       8 calls)
     v_of_rho     :      0.15s CPU      0.24s WALL (       9 calls)
     newd         :      0.48s CPU      0.66s WALL (       9 calls)
     PAW_pot      :      0.86s CPU      0.96s WALL (       9 calls)
     mix_rho      :      0.00s CPU      0.01s WALL (       8 calls)

     Called by c_bands:
     init_us_2    :      0.00s CPU      0.01s WALL (      68 calls)
     cegterg      :      0.58s CPU      0.82s WALL (      32 calls)

     Called by *egterg:
     cdiaghg      :      0.05s CPU      0.04s WALL (     104 calls)
     h_psi        :      0.42s CPU      0.64s WALL (     108 calls)
     s_psi        :      0.01s CPU      0.01s WALL (     108 calls)
     g_psi        :      0.00s CPU      0.00s WALL (      72 calls)

     Called by h_psi:
     h_psi:calbec :      0.02s CPU      0.01s WALL (     108 calls)
     vloc_psi     :      0.39s CPU      0.62s WALL (     108 calls)
     add_vuspsi   :      0.00s CPU      0.01s WALL (     108 calls)

     General routines
     calbec       :      0.02s CPU      0.02s WALL (     140 calls)
     fft          :      0.16s CPU      0.30s WALL (     115 calls)
     ffts         :      0.01s CPU      0.02s WALL (      17 calls)
     fftw         :      0.44s CPU      0.69s WALL (    3334 calls)
     interpolate  :      0.02s CPU      0.03s WALL (       9 calls)
 
     Parallel routines
     fft_scatt_xy :      0.02s CPU      0.02s WALL (    3466 calls)
     fft_scatt_yz :      0.46s CPU      0.78s WALL (    3466 calls)
 
     PWSCF        :      4.56s CPU      5.54s WALL

 
   This run was terminated on:  20:27: 3   7Sep2020            

=------------------------------------------------------------------------------=
   JOB DONE.
=------------------------------------------------------------------------------=
