
     Program BANDS v.6.6 starts on  7Sep2020 at 20:28:20 

     This program is part of the open-source Quantum ESPRESSO suite
     for quantum simulation of materials; please cite
         "P. Giannozzi et al., J. Phys.:Condens. Matter 21 395502 (2009);
         "P. Giannozzi et al., J. Phys.:Condens. Matter 29 465901 (2017);
          URL http://www.quantum-espresso.org", 
     in publications or presentations arising from this work. More details at
     http://www.quantum-espresso.org/quote

     Parallel version (MPI), running on    44 processors

     MPI processes distributed on     1 nodes
     R & G space division:  proc/nbgrp/npool/nimage =      44
     Fft bands division:     nmany     =       1

     Reading xml data from directory:

     ./outdir/nbse2.save/
     file Nb.pbe-spn-kjpaw_psl.0.3.0.UPF: wavefunction(s)  4S 4P renormalized

     IMPORTANT: XC functional enforced from input :
     Exchange-correlation= PBE
                           (   1   4   3   4   0   0   0)
     Any further DFT definition will be discarded
     Please, verify this is what you really want

 
     Parallelization info
     --------------------
     sticks:   dense  smooth     PW     G-vecs:    dense   smooth      PW
     Min          15       6      2                 2209      618     108
     Max          16       7      3                 2250      651     122
     Sum         685     301     91                97845    28125    4969
 

     Check: negative core charge=   -0.000003

     negative rho (up, down):  1.697E-03 0.000E+00
     Reading collected, re-writing distributed wavefunctions
     high-symmetry point:  0.0000 0.5774 0.0000   x coordinate   0.0000
     high-symmetry point:  0.0000 0.0000 0.0000   x coordinate   0.5774
     high-symmetry point: -0.3333 0.5774 0.0000   x coordinate   1.2440
     high-symmetry point:  0.0000 0.5774 0.0000   x coordinate   1.5774

     Plottable bands (eV) written to file nbse2.bands.dat.gnu
     Bands written to file nbse2.bands.dat

 **************************************************************************

                    xk=(   0.00000,   0.57735,   0.00000  )

     point group C_2v (mm2) 
     there are  4 classes
     the character table:

       E     C2    s_v   s_v' 
A_1    1.00  1.00  1.00  1.00
A_2    1.00  1.00 -1.00 -1.00
B_1    1.00 -1.00  1.00 -1.00
B_2    1.00 -1.00 -1.00  1.00

     the symmetry operations in each class and the name of the first element:

     E        1
                                                                 
     C2       2
                                                                 
     s_v      3
                                                                 
     s_v'     4
                                                                 

     Band symmetry, C_2v (mm2)  point group:

     e(  1 -  1) =    -57.00106  eV     1   --> A_1  D_1  S_1  
     e(  2 -  2) =    -33.18317  eV     1   --> A_1  D_1  S_1  
     e(  3 -  3) =    -33.00802  eV     1   --> B_1  D_3  S_3  
     e(  4 -  4) =    -32.94398  eV     1   --> B_2  D_4  S_4  
     e(  5 -  5) =    -13.82362  eV     1   --> A_1  D_1  S_1  
     e(  6 -  6) =    -13.59367  eV     1   --> B_2  D_4  S_4  
     e(  7 -  7) =     -6.55883  eV     1   --> A_1  D_1  S_1  
     e(  8 -  8) =     -5.62526  eV     1   --> B_2  D_4  S_4  
     e(  9 -  9) =     -4.97197  eV     1   --> A_1  D_1  S_1  
     e( 10 - 10) =     -3.98558  eV     1   --> A_2  D_2  S_2  
     e( 11 - 11) =     -3.01857  eV     1   --> B_2  D_4  S_4  
     e( 12 - 12) =     -2.38621  eV     1   --> B_1  D_3  S_3  
     e( 13 - 13) =     -1.84046  eV     1   --> A_1  D_1  S_1  
     e( 14 - 14) =      0.83029  eV     1   --> B_1  D_3  S_3  
     e( 15 - 15) =      1.25493  eV     1   --> A_1  D_1  S_1  
     e( 16 - 16) =      2.14163  eV     1   --> B_2  D_4  S_4  
     e( 17 - 17) =      2.71760  eV     1   --> A_2  D_2  S_2  
     e( 18 - 18) =      3.92418  eV     1   --> A_1  D_1  S_1  
     e( 19 - 19) =      5.59004  eV     1   --> A_1  D_1  S_1  
     e( 20 - 20) =      5.83034  eV     1   --> B_2  D_4  S_4  
     e( 21 - 21) =      6.56752  eV     1   --> B_2  D_4  S_4  

 **************************************************************************

 **************************************************************************

                    xk=(   0.00000,   0.56773,   0.00000  )

     Band symmetry, C_2v (mm2)  point group:

     e(  1 -  1) =    -57.00121  eV     1   --> A_1  D_1  S_1  
     e(  2 -  2) =    -33.18384  eV     1   --> A_1  D_1  S_1  
     e(  3 -  3) =    -33.00842  eV     1   --> B_1  D_3  S_3  
     e(  4 -  4) =    -32.94426  eV     1   --> B_2  D_4  S_4  
     e(  5 -  5) =    -13.82481  eV     1   --> A_1  D_1  S_1  
     e(  6 -  6) =    -13.59418  eV     1   --> B_2  D_4  S_4  
     e(  7 -  7) =     -6.55732  eV     1   --> A_1  D_1  S_1  
     e(  8 -  8) =     -5.62393  eV     1   --> B_2  D_4  S_4  
     e(  9 -  9) =     -4.97252  eV     1   --> A_1  D_1  S_1  
     e( 10 - 10) =     -3.98535  eV     1   --> A_2  D_2  S_2  
     e( 11 - 11) =     -3.01875  eV     1   --> B_2  D_4  S_4  
     e( 12 - 12) =     -2.38703  eV     1   --> B_1  D_3  S_3  
     e( 13 - 13) =     -1.84228  eV     1   --> A_1  D_1  S_1  
     e( 14 - 14) =      0.82538  eV     1   --> B_1  D_3  S_3  
     e( 15 - 15) =      1.25117  eV     1   --> A_1  D_1  S_1  
     e( 16 - 16) =      2.13830  eV     1   --> B_2  D_4  S_4  
     e( 17 - 17) =      2.71578  eV     1   --> A_2  D_2  S_2  
     e( 18 - 18) =      3.92856  eV     1   --> A_1  D_1  S_1  
     e( 19 - 19) =      5.58683  eV     1   --> A_1  D_1  S_1  
     e( 20 - 20) =      5.82901  eV     1   --> B_2  D_4  S_4  
     e( 21 - 21) =      6.56075  eV     1   --> B_2  D_4  S_4  

 **************************************************************************

 **************************************************************************

                    xk=(   0.00000,   0.55811,   0.00000  )

     Band symmetry, C_2v (mm2)  point group:

     e(  1 -  1) =    -57.00117  eV     1   --> A_1  D_1  S_1  
     e(  2 -  2) =    -33.18285  eV     1   --> A_1  D_1  S_1  
     e(  3 -  3) =    -33.00811  eV     1   --> B_1  D_3  S_3  
     e(  4 -  4) =    -32.94422  eV     1   --> B_2  D_4  S_4  
     e(  5 -  5) =    -13.82813  eV     1   --> A_1  D_1  S_1  
     e(  6 -  6) =    -13.59560  eV     1   --> B_2  D_4  S_4  
     e(  7 -  7) =     -6.55188  eV     1   --> A_1  D_1  S_1  
     e(  8 -  8) =     -5.61872  eV     1   --> B_2  D_4  S_4  
     e(  9 -  9) =     -4.97285  eV     1   --> A_1  D_1  S_1  
     e( 10 - 10) =     -3.98287  eV     1   --> A_2  D_2  S_2  
     e( 11 - 11) =     -3.01754  eV     1   --> B_2  D_4  S_4  
     e( 12 - 12) =     -2.38871  eV     1   --> B_1  D_3  S_3  
     e( 13 - 13) =     -1.84566  eV     1   --> A_1  D_1  S_1  
     e( 14 - 14) =      0.82675  eV     1   --> B_1  D_3  S_3  
     e( 15 - 15) =      1.25019  eV     1   --> A_1  D_1  S_1  
     e( 16 - 16) =      2.13580  eV     1   --> B_2  D_4  S_4  
     e( 17 - 17) =      2.71527  eV     1   --> A_2  D_2  S_2  
     e( 18 - 18) =      3.94262  eV     1   --> A_1  D_1  S_1  
     e( 19 - 19) =      5.57837  eV     1   --> A_1  D_1  S_1  
     e( 20 - 20) =      5.82594  eV     1   --> B_2  D_4  S_4  
     e( 21 - 21) =      6.54395  eV     1   --> B_2  D_4  S_4  

 **************************************************************************

 **************************************************************************

                    xk=(   0.00000,   0.54848,   0.00000  )

     Band symmetry, C_2v (mm2)  point group:

     e(  1 -  1) =    -57.00116  eV     1   --> A_1  D_1  S_1  
     e(  2 -  2) =    -33.18180  eV     1   --> A_1  D_1  S_1  
     e(  3 -  3) =    -33.00783  eV     1   --> B_1  D_3  S_3  
     e(  4 -  4) =    -32.94396  eV     1   --> B_2  D_4  S_4  
     e(  5 -  5) =    -13.83373  eV     1   --> A_1  D_1  S_1  
     e(  6 -  6) =    -13.59795  eV     1   --> B_2  D_4  S_4  
     e(  7 -  7) =     -6.54311  eV     1   --> A_1  D_1  S_1  
     e(  8 -  8) =     -5.61011  eV     1   --> B_2  D_4  S_4  
     e(  9 -  9) =     -4.97350  eV     1   --> A_1  D_1  S_1  
     e( 10 - 10) =     -3.97882  eV     1   --> A_2  D_2  S_2  
     e( 11 - 11) =     -3.01535  eV     1   --> B_2  D_4  S_4  
     e( 12 - 12) =     -2.39170  eV     1   --> B_1  D_3  S_3  
     e( 13 - 13) =     -1.85111  eV     1   --> A_1  D_1  S_1  
     e( 14 - 14) =      0.82626  eV     1   --> B_1  D_3  S_3  
     e( 15 - 15) =      1.24441  eV     1   --> A_1  D_1  S_1  
     e( 16 - 16) =      2.13280  eV     1   --> B_2  D_4  S_4  
     e( 17 - 17) =      2.71364  eV     1   --> A_2  D_2  S_2  
     e( 18 - 18) =      3.96562  eV     1   --> A_1  D_1  S_1  
     e( 19 - 19) =      5.56444  eV     1   --> A_1  D_1  S_1  
     e( 20 - 20) =      5.82081  eV     1   --> B_2  D_4  S_4  
     e( 21 - 21) =      6.51768  eV     1   --> B_2  D_4  S_4  

 **************************************************************************

 **************************************************************************

                    xk=(   0.00000,   0.53886,   0.00000  )

     Band symmetry, C_2v (mm2)  point group:

     e(  1 -  1) =    -57.00122  eV     1   --> A_1  D_1  S_1  
     e(  2 -  2) =    -33.18046  eV     1   --> A_1  D_1  S_1  
     e(  3 -  3) =    -33.00758  eV     1   --> B_1  D_3  S_3  
     e(  4 -  4) =    -32.94420  eV     1   --> B_2  D_4  S_4  
     e(  5 -  5) =    -13.84149  eV     1   --> A_1  D_1  S_1  
     e(  6 -  6) =    -13.60132  eV     1   --> B_2  D_4  S_4  
     e(  7 -  7) =     -6.53076  eV     1   --> A_1  D_1  S_1  
     e(  8 -  8) =     -5.59853  eV     1   --> B_2  D_4  S_4  
     e(  9 -  9) =     -4.97460  eV     1   --> A_1  D_1  S_1  
     e( 10 - 10) =     -3.97367  eV     1   --> A_2  D_2  S_2  
     e( 11 - 11) =     -3.01308  eV     1   --> B_2  D_4  S_4  
     e( 12 - 12) =     -2.39593  eV     1   --> B_1  D_3  S_3  
     e( 13 - 13) =     -1.85883  eV     1   --> A_1  D_1  S_1  
     e( 14 - 14) =      0.82399  eV     1   --> B_1  D_3  S_3  
     e( 15 - 15) =      1.23904  eV     1   --> A_1  D_1  S_1  
     e( 16 - 16) =      2.12477  eV     1   --> B_2  D_4  S_4  
     e( 17 - 17) =      2.71000  eV     1   --> A_2  D_2  S_2  
     e( 18 - 18) =      3.99756  eV     1   --> A_1  D_1  S_1  
     e( 19 - 19) =      5.54525  eV     1   --> A_1  D_1  S_1  
     e( 20 - 20) =      5.81297  eV     1   --> B_2  D_4  S_4  
     e( 21 - 21) =      6.48180  eV     1   --> B_2  D_4  S_4  

 **************************************************************************

 **************************************************************************

                    xk=(   0.00000,   0.52924,   0.00000  )

     Band symmetry, C_2v (mm2)  point group:

     e(  1 -  1) =    -57.00126  eV     1   --> A_1  D_1  S_1  
     e(  2 -  2) =    -33.17879  eV     1   --> A_1  D_1  S_1  
     e(  3 -  3) =    -33.00671  eV     1   --> B_1  D_3  S_3  
     e(  4 -  4) =    -32.94447  eV     1   --> B_2  D_4  S_4  
     e(  5 -  5) =    -13.85138  eV     1   --> A_1  D_1  S_1  
     e(  6 -  6) =    -13.60564  eV     1   --> B_2  D_4  S_4  
     e(  7 -  7) =     -6.51492  eV     1   --> A_1  D_1  S_1  
     e(  8 -  8) =     -5.58369  eV     1   --> B_2  D_4  S_4  
     e(  9 -  9) =     -4.97555  eV     1   --> A_1  D_1  S_1  
     e( 10 - 10) =     -3.96687  eV     1   --> A_2  D_2  S_2  
     e( 11 - 11) =     -3.01014  eV     1   --> B_2  D_4  S_4  
     e( 12 - 12) =     -2.40122  eV     1   --> B_1  D_3  S_3  
     e( 13 - 13) =     -1.86690  eV     1   --> A_1  D_1  S_1  
     e( 14 - 14) =      0.82210  eV     1   --> B_1  D_3  S_3  
     e( 15 - 15) =      1.23181  eV     1   --> A_1  D_1  S_1  
     e( 16 - 16) =      2.11445  eV     1   --> B_2  D_4  S_4  
     e( 17 - 17) =      2.70577  eV     1   --> A_2  D_2  S_2  
     e( 18 - 18) =      4.03821  eV     1   --> A_1  D_1  S_1  
     e( 19 - 19) =      5.52162  eV     1   --> A_1  D_1  S_1  
     e( 20 - 20) =      5.80244  eV     1   --> B_2  D_4  S_4  
     e( 21 - 21) =      6.43963  eV     1   --> B_2  D_4  S_4  

 **************************************************************************

 **************************************************************************

                    xk=(   0.00000,   0.51962,   0.00000  )

     Band symmetry, C_2v (mm2)  point group:

     e(  1 -  1) =    -57.00147  eV     1   --> A_1  D_1  S_1  
     e(  2 -  2) =    -33.17739  eV     1   --> A_1  D_1  S_1  
     e(  3 -  3) =    -33.00635  eV     1   --> B_1  D_3  S_3  
     e(  4 -  4) =    -32.94532  eV     1   --> B_2  D_4  S_4  
     e(  5 -  5) =    -13.86342  eV     1   --> A_1  D_1  S_1  
     e(  6 -  6) =    -13.61091  eV     1   --> B_2  D_4  S_4  
     e(  7 -  7) =     -6.49618  eV     1   --> A_1  D_1  S_1  
     e(  8 -  8) =     -5.56597  eV     1   --> B_2  D_4  S_4  
     e(  9 -  9) =     -4.97793  eV     1   --> A_1  D_1  S_1  
     e( 10 - 10) =     -3.95899  eV     1   --> A_2  D_2  S_2  
     e( 11 - 11) =     -3.00698  eV     1   --> B_2  D_4  S_4  
     e( 12 - 12) =     -2.40793  eV     1   --> B_1  D_3  S_3  
     e( 13 - 13) =     -1.87899  eV     1   --> A_1  D_1  S_1  
     e( 14 - 14) =      0.81832  eV     1   --> B_1  D_3  S_3  
     e( 15 - 15) =      1.21937  eV     1   --> A_1  D_1  S_1  
     e( 16 - 16) =      2.09956  eV     1   --> B_2  D_4  S_4  
     e( 17 - 17) =      2.69963  eV     1   --> A_2  D_2  S_2  
     e( 18 - 18) =      4.08655  eV     1   --> A_1  D_1  S_1  
     e( 19 - 19) =      5.49312  eV     1   --> A_1  D_1  S_1  
     e( 20 - 20) =      5.78833  eV     1   --> B_2  D_4  S_4  
     e( 21 - 21) =      6.39292  eV     1   --> B_2  D_4  S_4  

 **************************************************************************

 **************************************************************************

                    xk=(   0.00000,   0.50999,   0.00000  )

     Band symmetry, C_2v (mm2)  point group:

     e(  1 -  1) =    -57.00164  eV     1   --> A_1  D_1  S_1  
     e(  2 -  2) =    -33.17548  eV     1   --> A_1  D_1  S_1  
     e(  3 -  3) =    -33.00588  eV     1   --> B_1  D_3  S_3  
     e(  4 -  4) =    -32.94575  eV     1   --> B_2  D_4  S_4  
     e(  5 -  5) =    -13.87755  eV     1   --> A_1  D_1  S_1  
     e(  6 -  6) =    -13.61705  eV     1   --> B_2  D_4  S_4  
     e(  7 -  7) =     -6.47399  eV     1   --> A_1  D_1  S_1  
     e(  8 -  8) =     -5.54479  eV     1   --> B_2  D_4  S_4  
     e(  9 -  9) =     -4.98080  eV     1   --> A_1  D_1  S_1  
     e( 10 - 10) =     -3.94947  eV     1   --> A_2  D_2  S_2  
     e( 11 - 11) =     -3.00268  eV     1   --> B_2  D_4  S_4  
     e( 12 - 12) =     -2.41581  eV     1   --> B_1  D_3  S_3  
     e( 13 - 13) =     -1.89119  eV     1   --> A_1  D_1  S_1  
     e( 14 - 14) =      0.81479  eV     1   --> B_1  D_3  S_3  
     e( 15 - 15) =      1.20627  eV     1   --> A_1  D_1  S_1  
     e( 16 - 16) =      2.08454  eV     1   --> B_2  D_4  S_4  
     e( 17 - 17) =      2.69285  eV     1   --> A_2  D_2  S_2  
     e( 18 - 18) =      4.14183  eV     1   --> A_1  D_1  S_1  
     e( 19 - 19) =      5.46090  eV     1   --> A_1  D_1  S_1  
     e( 20 - 20) =      5.77078  eV     1   --> B_2  D_4  S_4  
     e( 21 - 21) =      6.34518  eV     1   --> B_2  D_4  S_4  

 **************************************************************************

 **************************************************************************

                    xk=(   0.00000,   0.50037,   0.00000  )

     Band symmetry, C_2v (mm2)  point group:

     e(  1 -  1) =    -57.00175  eV     1   --> A_1  D_1  S_1  
     e(  2 -  2) =    -33.17319  eV     1   --> A_1  D_1  S_1  
     e(  3 -  3) =    -33.00513  eV     1   --> B_1  D_3  S_3  
     e(  4 -  4) =    -32.94563  eV     1   --> B_2  D_4  S_4  
     e(  5 -  5) =    -13.89366  eV     1   --> A_1  D_1  S_1  
     e(  6 -  6) =    -13.62395  eV     1   --> B_2  D_4  S_4  
     e(  7 -  7) =     -6.44867  eV     1   --> A_1  D_1  S_1  
     e(  8 -  8) =     -5.52034  eV     1   --> B_2  D_4  S_4  
     e(  9 -  9) =     -4.98415  eV     1   --> A_1  D_1  S_1  
     e( 10 - 10) =     -3.93783  eV     1   --> A_2  D_2  S_2  
     e( 11 - 11) =     -2.99728  eV     1   --> B_2  D_4  S_4  
     e( 12 - 12) =     -2.42485  eV     1   --> B_1  D_3  S_3  
     e( 13 - 13) =     -1.90344  eV     1   --> A_1  D_1  S_1  
     e( 14 - 14) =      0.81212  eV     1   --> B_1  D_3  S_3  
     e( 15 - 15) =      1.19298  eV     1   --> A_1  D_1  S_1  
     e( 16 - 16) =      2.06825  eV     1   --> B_2  D_4  S_4  
     e( 17 - 17) =      2.68675  eV     1   --> A_2  D_2  S_2  
     e( 18 - 18) =      4.20378  eV     1   --> A_1  D_1  S_1  
     e( 19 - 19) =      5.42551  eV     1   --> A_1  D_1  S_1  
     e( 20 - 20) =      5.74842  eV     1   --> B_2  D_4  S_4  
     e( 21 - 21) =      6.29888  eV     1   --> B_2  D_4  S_4  

 **************************************************************************

 **************************************************************************

                    xk=(   0.00000,   0.49075,   0.00000  )

     Band symmetry, C_2v (mm2)  point group:

     e(  1 -  1) =    -57.00193  eV     1   --> A_1  D_1  S_1  
     e(  2 -  2) =    -33.17075  eV     1   --> A_1  D_1  S_1  
     e(  3 -  3) =    -33.00417  eV     1   --> B_1  D_3  S_3  
     e(  4 -  4) =    -32.94618  eV     1   --> B_2  D_4  S_4  
     e(  5 -  5) =    -13.91168  eV     1   --> A_1  D_1  S_1  
     e(  6 -  6) =    -13.63175  eV     1   --> B_2  D_4  S_4  
     e(  7 -  7) =     -6.42052  eV     1   --> A_1  D_1  S_1  
     e(  8 -  8) =     -5.49310  eV     1   --> B_2  D_4  S_4  
     e(  9 -  9) =     -4.98846  eV     1   --> A_1  D_1  S_1  
     e( 10 - 10) =     -3.92518  eV     1   --> A_2  D_2  S_2  
     e( 11 - 11) =     -2.99130  eV     1   --> B_2  D_4  S_4  
     e( 12 - 12) =     -2.43506  eV     1   --> B_1  D_3  S_3  
     e( 13 - 13) =     -1.91660  eV     1   --> A_1  D_1  S_1  
     e( 14 - 14) =      0.81140  eV     1   --> B_1  D_3  S_3  
     e( 15 - 15) =      1.17559  eV     1   --> A_1  D_1  S_1  
     e( 16 - 16) =      2.04837  eV     1   --> B_2  D_4  S_4  
     e( 17 - 17) =      2.67847  eV     1   --> A_2  D_2  S_2  
     e( 18 - 18) =      4.27155  eV     1   --> A_1  D_1  S_1  
     e( 19 - 19) =      5.38743  eV     1   --> A_1  D_1  S_1  
     e( 20 - 20) =      5.71994  eV     1   --> B_2  D_4  S_4  
     e( 21 - 21) =      6.25533  eV     1   -->   ?

 **************************************************************************

 **************************************************************************

                    xk=(   0.00000,   0.48113,   0.00000  )

     Band symmetry, C_2v (mm2)  point group:

     e(  1 -  1) =    -57.00206  eV     1   --> A_1  D_1  S_1  
     e(  2 -  2) =    -33.16719  eV     1   --> A_1  D_1  S_1  
     e(  3 -  3) =    -33.00340  eV     1   --> B_1  D_3  S_3  
     e(  4 -  4) =    -32.94658  eV     1   --> B_2  D_4  S_4  
     e(  5 -  5) =    -13.93146  eV     1   --> A_1  D_1  S_1  
     e(  6 -  6) =    -13.64033  eV     1   --> B_2  D_4  S_4  
     e(  7 -  7) =     -6.38901  eV     1   --> A_1  D_1  S_1  
     e(  8 -  8) =     -5.46249  eV     1   --> B_2  D_4  S_4  
     e(  9 -  9) =     -4.99344  eV     1   --> A_1  D_1  S_1  
     e( 10 - 10) =     -3.91114  eV     1   --> A_2  D_2  S_2  
     e( 11 - 11) =     -2.98412  eV     1   --> B_2  D_4  S_4  
     e( 12 - 12) =     -2.44649  eV     1   --> B_1  D_3  S_3  
     e( 13 - 13) =     -1.92967  eV     1   --> A_1  D_1  S_1  
     e( 14 - 14) =      0.80948  eV     1   --> B_1  D_3  S_3  
     e( 15 - 15) =      1.16094  eV     1   --> A_1  D_1  S_1  
     e( 16 - 16) =      2.02902  eV     1   --> B_2  D_4  S_4  
     e( 17 - 17) =      2.66883  eV     1   --> A_2  D_2  S_2  
     e( 18 - 18) =      4.34493  eV     1   --> A_1  D_1  S_1  
     e( 19 - 19) =      5.34787  eV     1   --> A_1  D_1  S_1  
     e( 20 - 20) =      5.68477  eV     1   --> B_2  D_4  S_4  
     e( 21 - 21) =      6.17293  eV     1   --> A_1  D_1  S_1  

 **************************************************************************

 **************************************************************************

                    xk=(   0.00000,   0.47150,   0.00000  )

     Band symmetry, C_2v (mm2)  point group:

     e(  1 -  1) =    -57.00247  eV     1   --> A_1  D_1  S_1  
     e(  2 -  2) =    -33.16457  eV     1   --> A_1  D_1  S_1  
     e(  3 -  3) =    -33.00377  eV     1   --> B_1  D_3  S_3  
     e(  4 -  4) =    -32.94754  eV     1   --> B_2  D_4  S_4  
     e(  5 -  5) =    -13.95307  eV     1   --> A_1  D_1  S_1  
     e(  6 -  6) =    -13.64978  eV     1   --> B_2  D_4  S_4  
     e(  7 -  7) =     -6.35514  eV     1   --> A_1  D_1  S_1  
     e(  8 -  8) =     -5.42966  eV     1   --> B_2  D_4  S_4  
     e(  9 -  9) =     -5.00045  eV     1   --> A_1  D_1  S_1  
     e( 10 - 10) =     -3.89679  eV     1   --> A_2  D_2  S_2  
     e( 11 - 11) =     -2.97703  eV     1   --> B_2  D_4  S_4  
     e( 12 - 12) =     -2.46008  eV     1   --> B_1  D_3  S_3  
     e( 13 - 13) =     -1.94428  eV     1   --> A_1  D_1  S_1  
     e( 14 - 14) =      0.80063  eV     1   --> B_1  D_3  S_3  
     e( 15 - 15) =      1.14269  eV     1   --> A_1  D_1  S_1  
     e( 16 - 16) =      2.00322  eV     1   --> B_2  D_4  S_4  
     e( 17 - 17) =      2.65492  eV     1   --> A_2  D_2  S_2  
     e( 18 - 18) =      4.42103  eV     1   --> A_1  D_1  S_1  
     e( 19 - 19) =      5.30655  eV     1   --> A_1  D_1  S_1  
     e( 20 - 20) =      5.64197  eV     1   --> B_2  D_4  S_4  
     e( 21 - 21) =      6.07076  eV     1   --> A_1  D_1  S_1  

 **************************************************************************

 **************************************************************************

                    xk=(   0.00000,   0.46188,   0.00000  )

     Band symmetry, C_2v (mm2)  point group:

     e(  1 -  1) =    -57.00288  eV     1   --> A_1  D_1  S_1  
     e(  2 -  2) =    -33.16166  eV     1   --> A_1  D_1  S_1  
     e(  3 -  3) =    -33.00342  eV     1   --> B_1  D_3  S_3  
     e(  4 -  4) =    -32.94898  eV     1   --> B_2  D_4  S_4  
     e(  5 -  5) =    -13.97631  eV     1   --> A_1  D_1  S_1  
     e(  6 -  6) =    -13.65996  eV     1   --> B_2  D_4  S_4  
     e(  7 -  7) =     -6.31872  eV     1   --> A_1  D_1  S_1  
     e(  8 -  8) =     -5.39414  eV     1   --> B_2  D_4  S_4  
     e(  9 -  9) =     -5.00806  eV     1   --> A_1  D_1  S_1  
     e( 10 - 10) =     -3.88124  eV     1   --> A_2  D_2  S_2  
     e( 11 - 11) =     -2.96922  eV     1   --> B_2  D_4  S_4  
     e( 12 - 12) =     -2.47447  eV     1   --> B_1  D_3  S_3  
     e( 13 - 13) =     -1.95713  eV     1   --> A_1  D_1  S_1  
     e( 14 - 14) =      0.79510  eV     1   --> B_1  D_3  S_3  
     e( 15 - 15) =      1.12181  eV     1   --> A_1  D_1  S_1  
     e( 16 - 16) =      1.97433  eV     1   --> B_2  D_4  S_4  
     e( 17 - 17) =      2.63996  eV     1   --> A_2  D_2  S_2  
     e( 18 - 18) =      4.49940  eV     1   --> A_1  D_1  S_1  
     e( 19 - 19) =      5.26558  eV     1   --> A_1  D_1  S_1  
     e( 20 - 20) =      5.59166  eV     1   --> B_2  D_4  S_4  
     e( 21 - 21) =      5.97105  eV     1   --> A_1  D_1  S_1  

 **************************************************************************

 **************************************************************************

                    xk=(   0.00000,   0.45226,   0.00000  )

     Band symmetry, C_2v (mm2)  point group:

     e(  1 -  1) =    -57.00315  eV     1   --> A_1  D_1  S_1  
     e(  2 -  2) =    -33.15812  eV     1   --> A_1  D_1  S_1  
     e(  3 -  3) =    -33.00237  eV     1   --> B_1  D_3  S_3  
     e(  4 -  4) =    -32.94969  eV     1   --> B_2  D_4  S_4  
     e(  5 -  5) =    -14.00103  eV     1   --> A_1  D_1  S_1  
     e(  6 -  6) =    -13.67078  eV     1   --> B_2  D_4  S_4  
     e(  7 -  7) =     -6.27996  eV     1   --> A_1  D_1  S_1  
     e(  8 -  8) =     -5.35534  eV     1   --> B_2  D_4  S_4  
     e(  9 -  9) =     -5.01657  eV     1   --> A_1  D_1  S_1  
     e( 10 - 10) =     -3.86301  eV     1   --> A_2  D_2  S_2  
     e( 11 - 11) =     -2.96010  eV     1   --> B_2  D_4  S_4  
     e( 12 - 12) =     -2.48961  eV     1   --> B_1  D_3  S_3  
     e( 13 - 13) =     -1.96778  eV     1   --> A_1  D_1  S_1  
     e( 14 - 14) =      0.79455  eV     1   --> B_1  D_3  S_3  
     e( 15 - 15) =      1.10131  eV     1   --> A_1  D_1  S_1  
     e( 16 - 16) =      1.94624  eV     1   --> B_2  D_4  S_4  
     e( 17 - 17) =      2.62721  eV     1   --> A_2  D_2  S_2  
     e( 18 - 18) =      4.57782  eV     1   --> A_1  D_1  S_1  
     e( 19 - 19) =      5.22675  eV     1   --> A_1  D_1  S_1  
     e( 20 - 20) =      5.53467  eV     1   --> B_2  D_4  S_4  
     e( 21 - 21) =      5.87397  eV     1   --> A_1  D_1  S_1  

 **************************************************************************

 **************************************************************************

                    xk=(   0.00000,   0.44264,   0.00000  )

     Band symmetry, C_2v (mm2)  point group:

     e(  1 -  1) =    -57.00347  eV     1   --> A_1  D_1  S_1  
     e(  2 -  2) =    -33.15427  eV     1   --> A_1  D_1  S_1  
     e(  3 -  3) =    -33.00157  eV     1   --> B_1  D_3  S_3  
     e(  4 -  4) =    -32.95051  eV     1   --> B_2  D_4  S_4  
     e(  5 -  5) =    -14.02718  eV     1   --> A_1  D_1  S_1  
     e(  6 -  6) =    -13.68224  eV     1   --> B_2  D_4  S_4  
     e(  7 -  7) =     -6.23881  eV     1   --> A_1  D_1  S_1  
     e(  8 -  8) =     -5.31403  eV     1   --> B_2  D_4  S_4  
     e(  9 -  9) =     -5.02603  eV     1   --> A_1  D_1  S_1  
     e( 10 - 10) =     -3.84427  eV     1   --> A_2  D_2  S_2  
     e( 11 - 11) =     -2.94999  eV     1   --> B_2  D_4  S_4  
     e( 12 - 12) =     -2.50614  eV     1   --> B_1  D_3  S_3  
     e( 13 - 13) =     -1.97605  eV     1   --> A_1  D_1  S_1  
     e( 14 - 14) =      0.79223  eV     1   --> B_1  D_3  S_3  
     e( 15 - 15) =      1.08118  eV     1   --> A_1  D_1  S_1  
     e( 16 - 16) =      1.91610  eV     1   --> B_2  D_4  S_4  
     e( 17 - 17) =      2.61141  eV     1   --> A_2  D_2  S_2  
     e( 18 - 18) =      4.65203  eV     1   --> A_1  D_1  S_1  
     e( 19 - 19) =      5.19327  eV     1   --> A_1  D_1  S_1  
     e( 20 - 20) =      5.47196  eV     1   --> B_2  D_4  S_4  
     e( 21 - 21) =      5.77970  eV     1   --> A_1  D_1  S_1  

 **************************************************************************

 **************************************************************************

                    xk=(   0.00000,   0.43301,   0.00000  )

     Band symmetry, C_2v (mm2)  point group:

     e(  1 -  1) =    -57.00380  eV     1   --> A_1  D_1  S_1  
     e(  2 -  2) =    -33.15059  eV     1   --> A_1  D_1  S_1  
     e(  3 -  3) =    -33.00029  eV     1   --> B_1  D_3  S_3  
     e(  4 -  4) =    -32.95140  eV     1   --> B_2  D_4  S_4  
     e(  5 -  5) =    -14.05466  eV     1   --> A_1  D_1  S_1  
     e(  6 -  6) =    -13.69439  eV     1   --> B_2  D_4  S_4  
     e(  7 -  7) =     -6.19588  eV     1   --> A_1  D_1  S_1  
     e(  8 -  8) =     -5.27042  eV     1   --> B_2  D_4  S_4  
     e(  9 -  9) =     -5.03681  eV     1   --> A_1  D_1  S_1  
     e( 10 - 10) =     -3.82294  eV     1   --> A_2  D_2  S_2  
     e( 11 - 11) =     -2.93943  eV     1   --> B_2  D_4  S_4  
     e( 12 - 12) =     -2.52380  eV     1   --> B_1  D_3  S_3  
     e( 13 - 13) =     -1.98257  eV     1   --> A_1  D_1  S_1  
     e( 14 - 14) =      0.79105  eV     1   --> B_1  D_3  S_3  
     e( 15 - 15) =      1.06012  eV     1   --> A_1  D_1  S_1  
     e( 16 - 16) =      1.88224  eV     1   --> B_2  D_4  S_4  
     e( 17 - 17) =      2.59713  eV     1   --> A_2  D_2  S_2  
     e( 18 - 18) =      4.71567  eV     1   --> A_1  D_1  S_1  
     e( 19 - 19) =      5.17094  eV     1   --> A_1  D_1  S_1  
     e( 20 - 20) =      5.40476  eV     1   --> B_2  D_4  S_4  
     e( 21 - 21) =      5.68850  eV     1   --> A_1  D_1  S_1  

 **************************************************************************

 **************************************************************************

                    xk=(   0.00000,   0.42339,   0.00000  )

     Band symmetry, C_2v (mm2)  point group:

     e(  1 -  1) =    -57.00410  eV     1   --> A_1  D_1  S_1  
     e(  2 -  2) =    -33.14586  eV     1   --> A_1  D_1  S_1  
     e(  3 -  3) =    -32.99926  eV     1   --> B_1  D_3  S_3  
     e(  4 -  4) =    -32.95227  eV     1   --> B_2  D_4  S_4  
     e(  5 -  5) =    -14.08331  eV     1   --> A_1  D_1  S_1  
     e(  6 -  6) =    -13.70703  eV     1   --> B_2  D_4  S_4  
     e(  7 -  7) =     -6.15093  eV     1   --> A_1  D_1  S_1  
     e(  8 -  8) =     -5.22414  eV     1   --> B_2  D_4  S_4  
     e(  9 -  9) =     -5.04849  eV     1   --> A_1  D_1  S_1  
     e( 10 - 10) =     -3.80096  eV     1   --> A_2  D_2  S_2  
     e( 11 - 11) =     -2.92763  eV     1   --> B_2  D_4  S_4  
     e( 12 - 12) =     -2.54260  eV     1   --> B_1  D_3  S_3  
     e( 13 - 13) =     -1.98632  eV     1   --> A_1  D_1  S_1  
     e( 14 - 14) =      0.79048  eV     1   --> B_1  D_3  S_3  
     e( 15 - 15) =      1.04125  eV     1   --> A_1  D_1  S_1  
     e( 16 - 16) =      1.84902  eV     1   --> B_2  D_4  S_4  
     e( 17 - 17) =      2.57989  eV     1   --> A_2  D_2  S_2  
     e( 18 - 18) =      4.75902  eV     1   --> A_1  D_1  S_1  
     e( 19 - 19) =      5.16912  eV     1   --> A_1  D_1  S_1  
     e( 20 - 20) =      5.33430  eV     1   --> B_2  D_4  S_4  
     e( 21 - 21) =      5.60099  eV     1   --> A_1  D_1  S_1  

 **************************************************************************

 **************************************************************************

                    xk=(   0.00000,   0.41377,   0.00000  )

     Band symmetry, C_2v (mm2)  point group:

     e(  1 -  1) =    -57.00444  eV     1   --> A_1  D_1  S_1  
     e(  2 -  2) =    -33.14142  eV     1   --> A_1  D_1  S_1  
     e(  3 -  3) =    -32.99767  eV     1   --> B_1  D_3  S_3  
     e(  4 -  4) =    -32.95348  eV     1   --> B_2  D_4  S_4  
     e(  5 -  5) =    -14.11306  eV     1   --> A_1  D_1  S_1  
     e(  6 -  6) =    -13.72022  eV     1   --> B_2  D_4  S_4  
     e(  7 -  7) =     -6.10464  eV     1   --> A_1  D_1  S_1  
     e(  8 -  8) =     -5.17600  eV     1   --> B_2  D_4  S_4  
     e(  9 -  9) =     -5.06104  eV     1   --> A_1  D_1  S_1  
     e( 10 - 10) =     -3.77755  eV     1   --> A_2  D_2  S_2  
     e( 11 - 11) =     -2.91517  eV     1   --> B_2  D_4  S_4  
     e( 12 - 12) =     -2.56243  eV     1   --> B_1  D_3  S_3  
     e( 13 - 13) =     -1.98629  eV     1   --> A_1  D_1  S_1  
     e( 14 - 14) =      0.79140  eV     1   --> B_1  D_3  S_3  
     e( 15 - 15) =      1.02047  eV     1   --> A_1  D_1  S_1  
     e( 16 - 16) =      1.81200  eV     1   --> B_2  D_4  S_4  
     e( 17 - 17) =      2.56164  eV     1   --> A_2  D_2  S_2  
     e( 18 - 18) =      4.77252  eV     1   --> A_1  D_1  S_1  
     e( 19 - 19) =      5.19379  eV     1   --> A_1  D_1  S_1  
     e( 20 - 20) =      5.26154  eV     1   --> B_2  D_4  S_4  
     e( 21 - 21) =      5.51825  eV     1   --> A_1  D_1  S_1  

 **************************************************************************

 **************************************************************************

                    xk=(   0.00000,   0.40415,   0.00000  )

     Band symmetry, C_2v (mm2)  point group:

     e(  1 -  1) =    -57.00482  eV     1   --> A_1  D_1  S_1  
     e(  2 -  2) =    -33.13673  eV     1   --> A_1  D_1  S_1  
     e(  3 -  3) =    -32.99643  eV     1   --> B_1  D_3  S_3  
     e(  4 -  4) =    -32.95467  eV     1   --> B_2  D_4  S_4  
     e(  5 -  5) =    -14.14381  eV     1   --> A_1  D_1  S_1  
     e(  6 -  6) =    -13.73385  eV     1   --> B_2  D_4  S_4  
     e(  7 -  7) =     -6.05787  eV     1   --> A_1  D_1  S_1  
     e(  8 -  8) =     -5.12561  eV     1   -->   ?
     e(  9 -  9) =     -5.07442  eV     1   -->   ?
     e( 10 - 10) =     -3.75354  eV     1   --> A_2  D_2  S_2  
     e( 11 - 11) =     -2.90151  eV     1   --> B_2  D_4  S_4  
     e( 12 - 12) =     -2.58339  eV     1   --> B_1  D_3  S_3  
     e( 13 - 13) =     -1.98420  eV     1   --> A_1  D_1  S_1  
     e( 14 - 14) =      0.79456  eV     1   --> B_1  D_3  S_3  
     e( 15 - 15) =      0.99874  eV     1   --> A_1  D_1  S_1  
     e( 16 - 16) =      1.77449  eV     1   --> B_2  D_4  S_4  
     e( 17 - 17) =      2.54048  eV     1   --> A_2  D_2  S_2  
     e( 18 - 18) =      4.75796  eV     1   --> A_1  D_1  S_1  
     e( 19 - 19) =      5.18731  eV     1   -->   ?
     e( 20 - 20) =      5.23812  eV     1   --> A_1  D_1  S_1  
     e( 21 - 21) =      5.44499  eV     1   --> A_1  D_1  S_1  

 **************************************************************************

 **************************************************************************

                    xk=(   0.00000,   0.39452,   0.00000  )

     Band symmetry, C_2v (mm2)  point group:

     e(  1 -  1) =    -57.00517  eV     1   --> A_1  D_1  S_1  
     e(  2 -  2) =    -33.13143  eV     1   --> A_1  D_1  S_1  
     e(  3 -  3) =    -32.99520  eV     1   --> B_1  D_3  S_3  
     e(  4 -  4) =    -32.95563  eV     1   --> B_2  D_4  S_4  
     e(  5 -  5) =    -14.17539  eV     1   --> A_1  D_1  S_1  
     e(  6 -  6) =    -13.74788  eV     1   --> B_2  D_4  S_4  
     e(  7 -  7) =     -6.01053  eV     1   --> A_1  D_1  S_1  
     e(  8 -  8) =     -5.08819  eV     1   -->   ?
     e(  9 -  9) =     -5.07292  eV     1   -->   ?
     e( 10 - 10) =     -3.72762  eV     1   --> A_2  D_2  S_2  
     e( 11 - 11) =     -2.88664  eV     1   --> B_2  D_4  S_4  
     e( 12 - 12) =     -2.60528  eV     1   --> B_1  D_3  S_3  
     e( 13 - 13) =     -1.97900  eV     1   --> A_1  D_1  S_1  
     e( 14 - 14) =      0.79791  eV     1   --> B_1  D_3  S_3  
     e( 15 - 15) =      0.97905  eV     1   --> A_1  D_1  S_1  
     e( 16 - 16) =      1.73710  eV     1   --> B_2  D_4  S_4  
     e( 17 - 17) =      2.51974  eV     1   --> A_2  D_2  S_2  
     e( 18 - 18) =      4.72424  eV     1   --> A_1  D_1  S_1  
     e( 19 - 19) =      5.11230  eV     1   --> B_2  D_4  S_4  
     e( 20 - 20) =      5.26771  eV     1   --> A_1  D_1  S_1  
     e( 21 - 21) =      5.40633  eV     1   --> A_1  D_1  S_1  

 **************************************************************************

 **************************************************************************

                    xk=(   0.00000,   0.38490,   0.00000  )

     Band symmetry, C_2v (mm2)  point group:

     e(  1 -  1) =    -57.00563  eV     1   --> A_1  D_1  S_1  
     e(  2 -  2) =    -33.12652  eV     1   --> A_1  D_1  S_1  
     e(  3 -  3) =    -32.99410  eV     1   --> B_1  D_3  S_3  
     e(  4 -  4) =    -32.95711  eV     1   --> B_2  D_4  S_4  
     e(  5 -  5) =    -14.20779  eV     1   --> A_1  D_1  S_1  
     e(  6 -  6) =    -13.76231  eV     1   --> B_2  D_4  S_4  
     e(  7 -  7) =     -5.96357  eV     1   --> A_1  D_1  S_1  
     e(  8 -  8) =     -5.10164  eV     1   -->   ?
     e(  9 -  9) =     -5.01914  eV     1   -->   ?
     e( 10 - 10) =     -3.70107  eV     1   --> A_2  D_2  S_2  
     e( 11 - 11) =     -2.87124  eV     1   --> B_2  D_4  S_4  
     e( 12 - 12) =     -2.62850  eV     1   --> B_1  D_3  S_3  
     e( 13 - 13) =     -1.97087  eV     1   --> A_1  D_1  S_1  
     e( 14 - 14) =      0.80062  eV     1   --> B_1  D_3  S_3  
     e( 15 - 15) =      0.95838  eV     1   --> A_1  D_1  S_1  
     e( 16 - 16) =      1.69504  eV     1   --> B_2  D_4  S_4  
     e( 17 - 17) =      2.49641  eV     1   --> A_2  D_2  S_2  
     e( 18 - 18) =      4.67886  eV     1   --> A_1  D_1  S_1  
     e( 19 - 19) =      5.03694  eV     1   --> B_2  D_4  S_4  
     e( 20 - 20) =      5.23146  eV     1   --> A_1  D_1  S_1  
     e( 21 - 21) =      5.44310  eV     1   --> A_1  D_1  S_1  

 **************************************************************************

 **************************************************************************

                    xk=(   0.00000,   0.37528,   0.00000  )

     Band symmetry, C_2v (mm2)  point group:

     e(  1 -  1) =    -57.00606  eV     1   --> A_1  D_1  S_1  
     e(  2 -  2) =    -33.12128  eV     1   --> A_1  D_1  S_1  
     e(  3 -  3) =    -32.99286  eV     1   --> B_1  D_3  S_3  
     e(  4 -  4) =    -32.95825  eV     1   --> B_2  D_4  S_4  
     e(  5 -  5) =    -14.24082  eV     1   --> A_1  D_1  S_1  
     e(  6 -  6) =    -13.77705  eV     1   --> B_2  D_4  S_4  
     e(  7 -  7) =     -5.91768  eV     1   --> A_1  D_1  S_1  
     e(  8 -  8) =     -5.11412  eV     1   --> A_1  D_1  S_1  
     e(  9 -  9) =     -4.96325  eV     1   --> B_2  D_4  S_4  
     e( 10 - 10) =     -3.67298  eV     1   --> A_2  D_2  S_2  
     e( 11 - 11) =     -2.85476  eV     1   --> B_2  D_4  S_4  
     e( 12 - 12) =     -2.65253  eV     1   --> B_1  D_3  S_3  
     e( 13 - 13) =     -1.95903  eV     1   --> A_1  D_1  S_1  
     e( 14 - 14) =      0.80505  eV     1   --> B_1  D_3  S_3  
     e( 15 - 15) =      0.93846  eV     1   --> A_1  D_1  S_1  
     e( 16 - 16) =      1.65411  eV     1   --> B_2  D_4  S_4  
     e( 17 - 17) =      2.47274  eV     1   --> A_2  D_2  S_2  
     e( 18 - 18) =      4.62686  eV     1   --> A_1  D_1  S_1  
     e( 19 - 19) =      4.96173  eV     1   --> B_2  D_4  S_4  
     e( 20 - 20) =      5.16594  eV     1   --> A_1  D_1  S_1  
     e( 21 - 21) =      5.51221  eV     1   --> A_1  D_1  S_1  

 **************************************************************************

 **************************************************************************

                    xk=(   0.00000,   0.36566,   0.00000  )

     Band symmetry, C_2v (mm2)  point group:

     e(  1 -  1) =    -57.00646  eV     1   --> A_1  D_1  S_1  
     e(  2 -  2) =    -33.11549  eV     1   --> A_1  D_1  S_1  
     e(  3 -  3) =    -32.99182  eV     1   --> B_1  D_3  S_3  
     e(  4 -  4) =    -32.95929  eV     1   --> B_2  D_4  S_4  
     e(  5 -  5) =    -14.27438  eV     1   --> A_1  D_1  S_1  
     e(  6 -  6) =    -13.79204  eV     1   --> B_2  D_4  S_4  
     e(  7 -  7) =     -5.87376  eV     1   --> A_1  D_1  S_1  
     e(  8 -  8) =     -5.12449  eV     1   --> A_1  D_1  S_1  
     e(  9 -  9) =     -4.90567  eV     1   --> B_2  D_4  S_4  
     e( 10 - 10) =     -3.64382  eV     1   --> A_2  D_2  S_2  
     e( 11 - 11) =     -2.83687  eV     1   --> B_2  D_4  S_4  
     e( 12 - 12) =     -2.67784  eV     1   --> B_1  D_3  S_3  
     e( 13 - 13) =     -1.94379  eV     1   --> A_1  D_1  S_1  
     e( 14 - 14) =      0.81005  eV     1   --> B_1  D_3  S_3  
     e( 15 - 15) =      0.92073  eV     1   --> A_1  D_1  S_1  
     e( 16 - 16) =      1.61341  eV     1   --> B_2  D_4  S_4  
     e( 17 - 17) =      2.44767  eV     1   --> A_2  D_2  S_2  
     e( 18 - 18) =      4.57098  eV     1   --> A_1  D_1  S_1  
     e( 19 - 19) =      4.88696  eV     1   --> B_2  D_4  S_4  
     e( 20 - 20) =      5.09581  eV     1   --> A_1  D_1  S_1  
     e( 21 - 21) =      5.58363  eV     1   --> A_1  D_1  S_1  

 **************************************************************************

 **************************************************************************

                    xk=(   0.00000,   0.35603,   0.00000  )

     Band symmetry, C_2v (mm2)  point group:

     e(  1 -  1) =    -57.00693  eV     1   --> A_1  D_1  S_1  
     e(  2 -  2) =    -33.11025  eV     1   --> A_1  D_1  S_1  
     e(  3 -  3) =    -32.99041  eV     1   --> B_1  D_3  S_3  
     e(  4 -  4) =    -32.96065  eV     1   --> B_2  D_4  S_4  
     e(  5 -  5) =    -14.30837  eV     1   --> A_1  D_1  S_1  
     e(  6 -  6) =    -13.80726  eV     1   --> B_2  D_4  S_4  
     e(  7 -  7) =     -5.83382  eV     1   --> A_1  D_1  S_1  
     e(  8 -  8) =     -5.13180  eV     1   --> A_1  D_1  S_1  
     e(  9 -  9) =     -4.84721  eV     1   --> B_2  D_4  S_4  
     e( 10 - 10) =     -3.61348  eV     1   --> A_2  D_2  S_2  
     e( 11 - 11) =     -2.81831  eV     1   --> B_2  D_4  S_4  
     e( 12 - 12) =     -2.70363  eV     1   --> B_1  D_3  S_3  
     e( 13 - 13) =     -1.92566  eV     1   --> A_1  D_1  S_1  
     e( 14 - 14) =      0.81855  eV     1   --> B_1  D_3  S_3  
     e( 15 - 15) =      0.90122  eV     1   --> A_1  D_1  S_1  
     e( 16 - 16) =      1.56913  eV     1   --> B_2  D_4  S_4  
     e( 17 - 17) =      2.42148  eV     1   --> A_2  D_2  S_2  
     e( 18 - 18) =      4.51240  eV     1   --> A_1  D_1  S_1  
     e( 19 - 19) =      4.81285  eV     1   --> B_2  D_4  S_4  
     e( 20 - 20) =      5.02569  eV     1   --> A_1  D_1  S_1  
     e( 21 - 21) =      5.64558  eV     1   --> A_1  D_1  S_1  

 **************************************************************************

 **************************************************************************

                    xk=(   0.00000,   0.34641,   0.00000  )

     Band symmetry, C_2v (mm2)  point group:

     e(  1 -  1) =    -57.00748  eV     1   --> A_1  D_1  S_1  
     e(  2 -  2) =    -33.10525  eV     1   --> A_1  D_1  S_1  
     e(  3 -  3) =    -32.98931  eV     1   --> B_1  D_3  S_3  
     e(  4 -  4) =    -32.96220  eV     1   --> B_2  D_4  S_4  
     e(  5 -  5) =    -14.34274  eV     1   --> A_1  D_1  S_1  
     e(  6 -  6) =    -13.82271  eV     1   --> B_2  D_4  S_4  
     e(  7 -  7) =     -5.79878  eV     1   --> A_1  D_1  S_1  
     e(  8 -  8) =     -5.13430  eV     1   --> A_1  D_1  S_1  
     e(  9 -  9) =     -4.78792  eV     1   --> B_2  D_4  S_4  
     e( 10 - 10) =     -3.58255  eV     1   --> A_2  D_2  S_2  
     e( 11 - 11) =     -2.79898  eV     1   --> B_2  D_4  S_4  
     e( 12 - 12) =     -2.73074  eV     1   --> B_1  D_3  S_3  
     e( 13 - 13) =     -1.90412  eV     1   --> A_1  D_1  S_1  
     e( 14 - 14) =      0.82529  eV     1   --> B_1  D_3  S_3  
     e( 15 - 15) =      0.88260  eV     1   --> A_1  D_1  S_1  
     e( 16 - 16) =      1.52327  eV     1   --> B_2  D_4  S_4  
     e( 17 - 17) =      2.39261  eV     1   --> A_2  D_2  S_2  
     e( 18 - 18) =      4.45220  eV     1   --> A_1  D_1  S_1  
     e( 19 - 19) =      4.73962  eV     1   --> B_2  D_4  S_4  
     e( 20 - 20) =      4.95669  eV     1   --> A_1  D_1  S_1  
     e( 21 - 21) =      5.69114  eV     1   --> A_1  D_1  S_1  

 **************************************************************************

 **************************************************************************

                    xk=(   0.00000,   0.33679,   0.00000  )

     Band symmetry, C_2v (mm2)  point group:

     e(  1 -  1) =    -57.00778  eV     1   --> A_1  D_1  S_1  
     e(  2 -  2) =    -33.09884  eV     1   --> A_1  D_1  S_1  
     e(  3 -  3) =    -32.98758  eV     1   --> B_1  D_3  S_3  
     e(  4 -  4) =    -32.96273  eV     1   --> B_2  D_4  S_4  
     e(  5 -  5) =    -14.37723  eV     1   --> A_1  D_1  S_1  
     e(  6 -  6) =    -13.83808  eV     1   --> B_2  D_4  S_4  
     e(  7 -  7) =     -5.76983  eV     1   --> A_1  D_1  S_1  
     e(  8 -  8) =     -5.13007  eV     1   --> A_1  D_1  S_1  
     e(  9 -  9) =     -4.72620  eV     1   --> B_2  D_4  S_4  
     e( 10 - 10) =     -3.54977  eV     1   --> A_2  D_2  S_2  
     e( 11 - 11) =     -2.77774  eV     1   --> B_2  D_4  S_4  
     e( 12 - 12) =     -2.75724  eV     1   --> B_1  D_3  S_3  
     e( 13 - 13) =     -1.87742  eV     1   --> A_1  D_1  S_1  
     e( 14 - 14) =      0.83821  eV     1   --> B_1  D_3  S_3  
     e( 15 - 15) =      0.86653  eV     1   --> A_1  D_1  S_1  
     e( 16 - 16) =      1.48470  eV     1   --> B_2  D_4  S_4  
     e( 17 - 17) =      2.36466  eV     1   --> A_2  D_2  S_2  
     e( 18 - 18) =      4.39121  eV     1   --> A_1  D_1  S_1  
     e( 19 - 19) =      4.66759  eV     1   --> B_2  D_4  S_4  
     e( 20 - 20) =      4.88921  eV     1   --> A_1  D_1  S_1  
     e( 21 - 21) =      5.71540  eV     1   -->   ?

 **************************************************************************

 **************************************************************************

                    xk=(   0.00000,   0.32717,   0.00000  )

     Band symmetry, C_2v (mm2)  point group:

     e(  1 -  1) =    -57.00826  eV     1   --> A_1  D_1  S_1  
     e(  2 -  2) =    -33.09299  eV     1   --> A_1  D_1  S_1  
     e(  3 -  3) =    -32.98622  eV     1   --> B_1  D_3  S_3  
     e(  4 -  4) =    -32.96402  eV     1   --> B_2  D_4  S_4  
     e(  5 -  5) =    -14.41191  eV     1   --> A_1  D_1  S_1  
     e(  6 -  6) =    -13.85370  eV     1   --> B_2  D_4  S_4  
     e(  7 -  7) =     -5.74932  eV     1   --> A_1  D_1  S_1  
     e(  8 -  8) =     -5.11798  eV     1   --> A_1  D_1  S_1  
     e(  9 -  9) =     -4.66433  eV     1   --> B_2  D_4  S_4  
     e( 10 - 10) =     -3.51647  eV     1   --> A_2  D_2  S_2  
     e( 11 - 11) =     -2.78495  eV     1   --> B_1  D_3  S_3  
     e( 12 - 12) =     -2.75644  eV     1   --> B_2  D_4  S_4  
     e( 13 - 13) =     -1.84936  eV     1   --> A_1  D_1  S_1  
     e( 14 - 14) =      0.84940  eV     1   --> B_1  D_3  S_3  
     e( 15 - 15) =      0.85066  eV     1   --> A_1  D_1  S_1  
     e( 16 - 16) =      1.44227  eV     1   --> B_2  D_4  S_4  
     e( 17 - 17) =      2.33454  eV     1   --> A_2  D_2  S_2  
     e( 18 - 18) =      4.32976  eV     1   --> A_1  D_1  S_1  
     e( 19 - 19) =      4.59675  eV     1   --> B_2  D_4  S_4  
     e( 20 - 20) =      4.82325  eV     1   --> A_1  D_1  S_1  
     e( 21 - 21) =      5.65788  eV     1   --> B_2  D_4  S_4  

 **************************************************************************

 **************************************************************************

                    xk=(   0.00000,   0.31754,   0.00000  )

     Band symmetry, C_2v (mm2)  point group:

     e(  1 -  1) =    -57.00873  eV     1   --> A_1  D_1  S_1  
     e(  2 -  2) =    -33.08723  eV     1   --> A_1  D_1  S_1  
     e(  3 -  3) =    -32.98433  eV     1   --> B_1  D_3  S_3  
     e(  4 -  4) =    -32.96565  eV     1   --> B_2  D_4  S_4  
     e(  5 -  5) =    -14.44662  eV     1   --> A_1  D_1  S_1  
     e(  6 -  6) =    -13.86934  eV     1   --> B_2  D_4  S_4  
     e(  7 -  7) =     -5.73753  eV     1   --> A_1  D_1  S_1  
     e(  8 -  8) =     -5.09681  eV     1   --> A_1  D_1  S_1  
     e(  9 -  9) =     -4.60239  eV     1   --> B_2  D_4  S_4  
     e( 10 - 10) =     -3.48224  eV     1   --> A_2  D_2  S_2  
     e( 11 - 11) =     -2.81303  eV     1   --> B_1  D_3  S_3  
     e( 12 - 12) =     -2.73430  eV     1   --> B_2  D_4  S_4  
     e( 13 - 13) =     -1.81748  eV     1   --> A_1  D_1  S_1  
     e( 14 - 14) =      0.83629  eV     1   --> A_1  D_1  S_1  
     e( 15 - 15) =      0.86278  eV     1   --> B_1  D_3  S_3  
     e( 16 - 16) =      1.39771  eV     1   --> B_2  D_4  S_4  
     e( 17 - 17) =      2.30308  eV     1   --> A_2  D_2  S_2  
     e( 18 - 18) =      4.26829  eV     1   --> A_1  D_1  S_1  
     e( 19 - 19) =      4.52722  eV     1   --> B_2  D_4  S_4  
     e( 20 - 20) =      4.75881  eV     1   --> A_1  D_1  S_1  
     e( 21 - 21) =      5.59591  eV     1   --> B_2  D_4  S_4  

 **************************************************************************

 **************************************************************************

                    xk=(   0.00000,   0.30792,   0.00000  )

     Band symmetry, C_2v (mm2)  point group:

     e(  1 -  1) =    -57.00907  eV     1   --> A_1  D_1  S_1  
     e(  2 -  2) =    -33.08057  eV     1   --> A_1  D_1  S_1  
     e(  3 -  3) =    -32.98274  eV     1   --> B_1  D_3  S_3  
     e(  4 -  4) =    -32.96637  eV     1   --> B_2  D_4  S_4  
     e(  5 -  5) =    -14.48120  eV     1   --> A_1  D_1  S_1  
     e(  6 -  6) =    -13.88493  eV     1   --> B_2  D_4  S_4  
     e(  7 -  7) =     -5.73499  eV     1   --> A_1  D_1  S_1  
     e(  8 -  8) =     -5.06637  eV     1   --> A_1  D_1  S_1  
     e(  9 -  9) =     -4.53891  eV     1   --> B_2  D_4  S_4  
     e( 10 - 10) =     -3.44631  eV     1   --> A_2  D_2  S_2  
     e( 11 - 11) =     -2.84114  eV     1   --> B_1  D_3  S_3  
     e( 12 - 12) =     -2.71097  eV     1   --> B_2  D_4  S_4  
     e( 13 - 13) =     -1.78298  eV     1   --> A_1  D_1  S_1  
     e( 14 - 14) =      0.82640  eV     1   --> A_1  D_1  S_1  
     e( 15 - 15) =      0.87828  eV     1   --> B_1  D_3  S_3  
     e( 16 - 16) =      1.35817  eV     1   --> B_2  D_4  S_4  
     e( 17 - 17) =      2.27217  eV     1   --> A_2  D_2  S_2  
     e( 18 - 18) =      4.20744  eV     1   --> A_1  D_1  S_1  
     e( 19 - 19) =      4.45922  eV     1   --> B_2  D_4  S_4  
     e( 20 - 20) =      4.69609  eV     1   --> A_1  D_1  S_1  
     e( 21 - 21) =      5.53434  eV     1   --> B_2  D_4  S_4  

 **************************************************************************

 **************************************************************************

                    xk=(   0.00000,   0.29830,   0.00000  )

     Band symmetry, C_2v (mm2)  point group:

     e(  1 -  1) =    -57.00953  eV     1   --> A_1  D_1  S_1  
     e(  2 -  2) =    -33.07436  eV     1   --> A_1  D_1  S_1  
     e(  3 -  3) =    -32.98132  eV     1   --> B_1  D_3  S_3  
     e(  4 -  4) =    -32.96759  eV     1   --> B_2  D_4  S_4  
     e(  5 -  5) =    -14.51567  eV     1   --> A_1  D_1  S_1  
     e(  6 -  6) =    -13.90049  eV     1   --> B_2  D_4  S_4  
     e(  7 -  7) =     -5.74129  eV     1   --> A_1  D_1  S_1  
     e(  8 -  8) =     -5.02731  eV     1   --> A_1  D_1  S_1  
     e(  9 -  9) =     -4.47519  eV     1   --> B_2  D_4  S_4  
     e( 10 - 10) =     -3.41048  eV     1   --> A_2  D_2  S_2  
     e( 11 - 11) =     -2.87000  eV     1   --> B_1  D_3  S_3  
     e( 12 - 12) =     -2.68727  eV     1   --> B_2  D_4  S_4  
     e( 13 - 13) =     -1.74732  eV     1   --> A_1  D_1  S_1  
     e( 14 - 14) =      0.81505  eV     1   --> A_1  D_1  S_1  
     e( 15 - 15) =      0.89349  eV     1   --> B_1  D_3  S_3  
     e( 16 - 16) =      1.31893  eV     1   --> B_2  D_4  S_4  
     e( 17 - 17) =      2.23848  eV     1   --> A_2  D_2  S_2  
     e( 18 - 18) =      4.14685  eV     1   --> A_1  D_1  S_1  
     e( 19 - 19) =      4.39277  eV     1   --> B_2  D_4  S_4  
     e( 20 - 20) =      4.63460  eV     1   --> A_1  D_1  S_1  
     e( 21 - 21) =      5.47347  eV     1   --> B_2  D_4  S_4  

 **************************************************************************

 **************************************************************************

                    xk=(   0.00000,   0.28868,   0.00000  )

     Band symmetry, C_2v (mm2)  point group:

     e(  1 -  1) =    -57.00999  eV     1   --> A_1  D_1  S_1  
     e(  2 -  2) =    -33.06810  eV     1   --> A_1  D_1  S_1  
     e(  3 -  3) =    -32.97947  eV     1   --> B_1  D_3  S_3  
     e(  4 -  4) =    -32.96925  eV     1   --> B_2  D_4  S_4  
     e(  5 -  5) =    -14.54992  eV     1   --> A_1  D_1  S_1  
     e(  6 -  6) =    -13.91586  eV     1   --> B_2  D_4  S_4  
     e(  7 -  7) =     -5.75522  eV     1   --> A_1  D_1  S_1  
     e(  8 -  8) =     -4.98079  eV     1   --> A_1  D_1  S_1  
     e(  9 -  9) =     -4.41138  eV     1   --> B_2  D_4  S_4  
     e( 10 - 10) =     -3.37270  eV     1   --> A_2  D_2  S_2  
     e( 11 - 11) =     -2.89896  eV     1   --> B_1  D_3  S_3  
     e( 12 - 12) =     -2.66292  eV     1   --> B_2  D_4  S_4  
     e( 13 - 13) =     -1.71143  eV     1   --> A_1  D_1  S_1  
     e( 14 - 14) =      0.80329  eV     1   --> A_1  D_1  S_1  
     e( 15 - 15) =      0.91117  eV     1   --> B_1  D_3  S_3  
     e( 16 - 16) =      1.28086  eV     1   --> B_2  D_4  S_4  
     e( 17 - 17) =      2.20559  eV     1   --> A_2  D_2  S_2  
     e( 18 - 18) =      4.08681  eV     1   --> A_1  D_1  S_1  
     e( 19 - 19) =      4.32795  eV     1   --> B_2  D_4  S_4  
     e( 20 - 20) =      4.57430  eV     1   --> A_1  D_1  S_1  
     e( 21 - 21) =      5.41355  eV     1   --> B_2  D_4  S_4  

 **************************************************************************

 **************************************************************************

                    xk=(   0.00000,   0.27905,   0.00000  )

     Band symmetry, C_2v (mm2)  point group:

     e(  1 -  1) =    -57.01042  eV     1   --> A_1  D_1  S_1  
     e(  2 -  2) =    -33.06179  eV     1   --> A_1  D_1  S_1  
     e(  3 -  3) =    -32.97771  eV     1   --> B_1  D_3  S_3  
     e(  4 -  4) =    -32.97055  eV     1   --> B_2  D_4  S_4  
     e(  5 -  5) =    -14.58379  eV     1   --> A_1  D_1  S_1  
     e(  6 -  6) =    -13.93123  eV     1   --> B_2  D_4  S_4  
     e(  7 -  7) =     -5.77478  eV     1   --> A_1  D_1  S_1  
     e(  8 -  8) =     -4.92822  eV     1   --> A_1  D_1  S_1  
     e(  9 -  9) =     -4.34755  eV     1   --> B_2  D_4  S_4  
     e( 10 - 10) =     -3.33535  eV     1   --> A_2  D_2  S_2  
     e( 11 - 11) =     -2.92728  eV     1   --> B_1  D_3  S_3  
     e( 12 - 12) =     -2.63826  eV     1   --> B_2  D_4  S_4  
     e( 13 - 13) =     -1.67218  eV     1   --> A_1  D_1  S_1  
     e( 14 - 14) =      0.79594  eV     1   --> A_1  D_1  S_1  
     e( 15 - 15) =      0.93131  eV     1   --> B_1  D_3  S_3  
     e( 16 - 16) =      1.24371  eV     1   --> B_2  D_4  S_4  
     e( 17 - 17) =      2.17006  eV     1   --> A_2  D_2  S_2  
     e( 18 - 18) =      4.02794  eV     1   --> A_1  D_1  S_1  
     e( 19 - 19) =      4.26481  eV     1   --> B_2  D_4  S_4  
     e( 20 - 20) =      4.51547  eV     1   --> A_1  D_1  S_1  
     e( 21 - 21) =      5.35472  eV     1   --> B_2  D_4  S_4  

 **************************************************************************

 **************************************************************************

                    xk=(   0.00000,   0.26943,   0.00000  )

     Band symmetry, C_2v (mm2)  point group:

     e(  1 -  1) =    -57.01090  eV     1   --> A_1  D_1  S_1  
     e(  2 -  2) =    -33.05540  eV     1   --> A_1  D_1  S_1  
     e(  3 -  3) =    -32.97663  eV     1   --> B_1  D_3  S_3  
     e(  4 -  4) =    -32.97182  eV     1   --> B_2  D_4  S_4  
     e(  5 -  5) =    -14.61725  eV     1   --> A_1  D_1  S_1  
     e(  6 -  6) =    -13.94641  eV     1   --> B_2  D_4  S_4  
     e(  7 -  7) =     -5.79928  eV     1   --> A_1  D_1  S_1  
     e(  8 -  8) =     -4.87110  eV     1   --> A_1  D_1  S_1  
     e(  9 -  9) =     -4.28361  eV     1   --> B_2  D_4  S_4  
     e( 10 - 10) =     -3.29761  eV     1   --> A_2  D_2  S_2  
     e( 11 - 11) =     -2.95610  eV     1   --> B_1  D_3  S_3  
     e( 12 - 12) =     -2.61329  eV     1   --> B_2  D_4  S_4  
     e( 13 - 13) =     -1.63354  eV     1   --> A_1  D_1  S_1  
     e( 14 - 14) =      0.79008  eV     1   --> A_1  D_1  S_1  
     e( 15 - 15) =      0.95200  eV     1   --> B_1  D_3  S_3  
     e( 16 - 16) =      1.20896  eV     1   --> B_2  D_4  S_4  
     e( 17 - 17) =      2.13298  eV     1   --> A_2  D_2  S_2  
     e( 18 - 18) =      3.97014  eV     1   --> A_1  D_1  S_1  
     e( 19 - 19) =      4.20342  eV     1   --> B_2  D_4  S_4  
     e( 20 - 20) =      4.45787  eV     1   --> A_1  D_1  S_1  
     e( 21 - 21) =      5.29715  eV     1   --> B_2  D_4  S_4  

 **************************************************************************

 **************************************************************************

                    xk=(   0.00000,   0.25981,   0.00000  )

     Band symmetry, C_2v (mm2)  point group:

     e(  1 -  1) =    -57.01139  eV     1   --> A_1  D_1  S_1  
     e(  2 -  2) =    -33.04932  eV     1   --> A_1  D_1  S_1  
     e(  3 -  3) =    -32.97547  eV     1   --> B_1  D_3  S_3  
     e(  4 -  4) =    -32.97308  eV     1   --> B_2  D_4  S_4  
     e(  5 -  5) =    -14.65020  eV     1   --> A_1  D_1  S_1  
     e(  6 -  6) =    -13.96141  eV     1   --> B_2  D_4  S_4  
     e(  7 -  7) =     -5.82695  eV     1   --> A_1  D_1  S_1  
     e(  8 -  8) =     -4.81012  eV     1   --> A_1  D_1  S_1  
     e(  9 -  9) =     -4.21993  eV     1   --> B_2  D_4  S_4  
     e( 10 - 10) =     -3.25933  eV     1   --> A_2  D_2  S_2  
     e( 11 - 11) =     -2.98662  eV     1   --> B_1  D_3  S_3  
     e( 12 - 12) =     -2.58824  eV     1   --> B_2  D_4  S_4  
     e( 13 - 13) =     -1.59290  eV     1   --> A_1  D_1  S_1  
     e( 14 - 14) =      0.78795  eV     1   --> A_1  D_1  S_1  
     e( 15 - 15) =      0.96901  eV     1   --> B_1  D_3  S_3  
     e( 16 - 16) =      1.17638  eV     1   --> B_2  D_4  S_4  
     e( 17 - 17) =      2.09528  eV     1   --> A_2  D_2  S_2  
     e( 18 - 18) =      3.91357  eV     1   --> A_1  D_1  S_1  
     e( 19 - 19) =      4.14384  eV     1   --> B_2  D_4  S_4  
     e( 20 - 20) =      4.40148  eV     1   --> A_1  D_1  S_1  
     e( 21 - 21) =      5.24095  eV     1   --> B_2  D_4  S_4  

 **************************************************************************

 **************************************************************************

                    xk=(   0.00000,   0.25019,   0.00000  )

     Band symmetry, C_2v (mm2)  point group:

     e(  1 -  1) =    -57.01193  eV     1   --> A_1  D_1  S_1  
     e(  2 -  2) =    -33.04425  eV     1   --> A_1  D_1  S_1  
     e(  3 -  3) =    -32.97456  eV     1   --> B_2  D_4  S_4  
     e(  4 -  4) =    -32.97376  eV     1   --> B_1  D_3  S_3  
     e(  5 -  5) =    -14.68265  eV     1   --> A_1  D_1  S_1  
     e(  6 -  6) =    -13.97615  eV     1   --> B_2  D_4  S_4  
     e(  7 -  7) =     -5.85698  eV     1   --> A_1  D_1  S_1  
     e(  8 -  8) =     -4.74676  eV     1   --> A_1  D_1  S_1  
     e(  9 -  9) =     -4.15749  eV     1   --> B_2  D_4  S_4  
     e( 10 - 10) =     -3.22058  eV     1   --> A_2  D_2  S_2  
     e( 11 - 11) =     -3.01659  eV     1   --> B_1  D_3  S_3  
     e( 12 - 12) =     -2.56336  eV     1   --> B_2  D_4  S_4  
     e( 13 - 13) =     -1.55113  eV     1   --> A_1  D_1  S_1  
     e( 14 - 14) =      0.78613  eV     1   --> A_1  D_1  S_1  
     e( 15 - 15) =      0.98837  eV     1   --> B_1  D_3  S_3  
     e( 16 - 16) =      1.14260  eV     1   --> B_2  D_4  S_4  
     e( 17 - 17) =      2.05671  eV     1   --> A_2  D_2  S_2  
     e( 18 - 18) =      3.85814  eV     1   --> A_1  D_1  S_1  
     e( 19 - 19) =      4.08604  eV     1   --> B_2  D_4  S_4  
     e( 20 - 20) =      4.34606  eV     1   --> A_1  D_1  S_1  
     e( 21 - 21) =      5.18619  eV     1   --> B_2  D_4  S_4  

 **************************************************************************

 **************************************************************************

                    xk=(   0.00000,   0.24056,   0.00000  )

     Band symmetry, C_2v (mm2)  point group:

     e(  1 -  1) =    -57.01239  eV     1   --> A_1  D_1  S_1  
     e(  2 -  2) =    -33.03799  eV     1   --> A_1  D_1  S_1  
     e(  3 -  3) =    -32.97584  eV     1   --> B_2  D_4  S_4  
     e(  4 -  4) =    -32.97263  eV     1   --> B_1  D_3  S_3  
     e(  5 -  5) =    -14.71441  eV     1   --> A_1  D_1  S_1  
     e(  6 -  6) =    -13.99059  eV     1   --> B_2  D_4  S_4  
     e(  7 -  7) =     -5.88883  eV     1   --> A_1  D_1  S_1  
     e(  8 -  8) =     -4.68078  eV     1   --> A_1  D_1  S_1  
     e(  9 -  9) =     -4.09456  eV     1   --> B_2  D_4  S_4  
     e( 10 - 10) =     -3.18195  eV     1   --> A_2  D_2  S_2  
     e( 11 - 11) =     -3.04554  eV     1   --> B_1  D_3  S_3  
     e( 12 - 12) =     -2.53881  eV     1   --> B_2  D_4  S_4  
     e( 13 - 13) =     -1.50980  eV     1   --> A_1  D_1  S_1  
     e( 14 - 14) =      0.78928  eV     1   --> A_1  D_1  S_1  
     e( 15 - 15) =      1.00969  eV     1   --> B_1  D_3  S_3  
     e( 16 - 16) =      1.11502  eV     1   --> B_2  D_4  S_4  
     e( 17 - 17) =      2.01673  eV     1   --> A_2  D_2  S_2  
     e( 18 - 18) =      3.80414  eV     1   --> A_1  D_1  S_1  
     e( 19 - 19) =      4.03017  eV     1   --> B_2  D_4  S_4  
     e( 20 - 20) =      4.29174  eV     1   --> A_1  D_1  S_1  
     e( 21 - 21) =      5.13302  eV     1   --> B_2  D_4  S_4  

 **************************************************************************

 **************************************************************************

                    xk=(   0.00000,   0.23094,   0.00000  )

     Band symmetry, C_2v (mm2)  point group:

     e(  1 -  1) =    -57.01281  eV     1   --> A_1  D_1  S_1  
     e(  2 -  2) =    -33.03262  eV     1   --> A_1  D_1  S_1  
     e(  3 -  3) =    -32.97661  eV     1   --> B_2  D_4  S_4  
     e(  4 -  4) =    -32.97089  eV     1   --> B_1  D_3  S_3  
     e(  5 -  5) =    -14.74545  eV     1   --> A_1  D_1  S_1  
     e(  6 -  6) =    -14.00463  eV     1   --> B_2  D_4  S_4  
     e(  7 -  7) =     -5.92168  eV     1   --> A_1  D_1  S_1  
     e(  8 -  8) =     -4.61374  eV     1   --> A_1  D_1  S_1  
     e(  9 -  9) =     -4.03257  eV     1   --> B_2  D_4  S_4  
     e( 10 - 10) =     -3.14195  eV     1   -->   ?
     e( 11 - 11) =     -3.07456  eV     1   -->   ?
     e( 12 - 12) =     -2.51481  eV     1   --> B_2  D_4  S_4  
     e( 13 - 13) =     -1.46716  eV     1   --> A_1  D_1  S_1  
     e( 14 - 14) =      0.79413  eV     1   --> A_1  D_1  S_1  
     e( 15 - 15) =      1.03231  eV     1   --> B_1  D_3  S_3  
     e( 16 - 16) =      1.08863  eV     1   --> B_2  D_4  S_4  
     e( 17 - 17) =      1.97837  eV     1   --> A_2  D_2  S_2  
     e( 18 - 18) =      3.75152  eV     1   --> A_1  D_1  S_1  
     e( 19 - 19) =      3.97619  eV     1   --> B_2  D_4  S_4  
     e( 20 - 20) =      4.23835  eV     1   --> A_1  D_1  S_1  
     e( 21 - 21) =      5.08144  eV     1   --> B_2  D_4  S_4  

 **************************************************************************

 **************************************************************************

                    xk=(   0.00000,   0.22132,   0.00000  )

     Band symmetry, C_2v (mm2)  point group:

     e(  1 -  1) =    -57.01332  eV     1   --> A_1  D_1  S_1  
     e(  2 -  2) =    -33.02773  eV     1   --> A_1  D_1  S_1  
     e(  3 -  3) =    -32.97762  eV     1   --> B_2  D_4  S_4  
     e(  4 -  4) =    -32.96968  eV     1   --> B_1  D_3  S_3  
     e(  5 -  5) =    -14.77575  eV     1   --> A_1  D_1  S_1  
     e(  6 -  6) =    -14.01842  eV     1   --> B_2  D_4  S_4  
     e(  7 -  7) =     -5.95558  eV     1   --> A_1  D_1  S_1  
     e(  8 -  8) =     -4.54613  eV     1   --> A_1  D_1  S_1  
     e(  9 -  9) =     -3.97130  eV     1   --> B_2  D_4  S_4  
     e( 10 - 10) =     -3.10547  eV     1   -->   ?
     e( 11 - 11) =     -3.10122  eV     1   -->   ?
     e( 12 - 12) =     -2.49177  eV     1   --> B_2  D_4  S_4  
     e( 13 - 13) =     -1.42790  eV     1   --> A_1  D_1  S_1  
     e( 14 - 14) =      0.80122  eV     1   --> A_1  D_1  S_1  
     e( 15 - 15) =      1.05248  eV     1   --> B_1  D_3  S_3  
     e( 16 - 16) =      1.06637  eV     1   --> B_2  D_4  S_4  
     e( 17 - 17) =      1.93975  eV     1   --> A_2  D_2  S_2  
     e( 18 - 18) =      3.70025  eV     1   --> A_1  D_1  S_1  
     e( 19 - 19) =      3.92418  eV     1   --> B_2  D_4  S_4  
     e( 20 - 20) =      4.18574  eV     1   --> A_1  D_1  S_1  
     e( 21 - 21) =      5.03157  eV     1   --> B_2  D_4  S_4  

 **************************************************************************

 **************************************************************************

                    xk=(   0.00000,   0.21170,   0.00000  )

     Band symmetry, C_2v (mm2)  point group:

     e(  1 -  1) =    -57.01386  eV     1   --> A_1  D_1  S_1  
     e(  2 -  2) =    -33.02277  eV     1   --> A_1  D_1  S_1  
     e(  3 -  3) =    -32.97901  eV     1   --> B_2  D_4  S_4  
     e(  4 -  4) =    -32.96866  eV     1   --> B_1  D_3  S_3  
     e(  5 -  5) =    -14.80522  eV     1   --> A_1  D_1  S_1  
     e(  6 -  6) =    -14.03187  eV     1   --> B_2  D_4  S_4  
     e(  7 -  7) =     -5.98959  eV     1   --> A_1  D_1  S_1  
     e(  8 -  8) =     -4.47788  eV     1   --> A_1  D_1  S_1  
     e(  9 -  9) =     -3.91112  eV     1   --> B_2  D_4  S_4  
     e( 10 - 10) =     -3.13394  eV     1   -->   ?
     e( 11 - 11) =     -3.06268  eV     1   -->   ?
     e( 12 - 12) =     -2.46998  eV     1   --> B_2  D_4  S_4  
     e( 13 - 13) =     -1.38909  eV     1   --> A_1  D_1  S_1  
     e( 14 - 14) =      0.81110  eV     1   --> A_1  D_1  S_1  
     e( 15 - 15) =      1.04657  eV     1   --> B_2  D_4  S_4  
     e( 16 - 16) =      1.07408  eV     1   --> B_1  D_3  S_3  
     e( 17 - 17) =      1.89801  eV     1   --> A_2  D_2  S_2  
     e( 18 - 18) =      3.65031  eV     1   --> A_1  D_1  S_1  
     e( 19 - 19) =      3.87414  eV     1   --> B_2  D_4  S_4  
     e( 20 - 20) =      4.13375  eV     1   --> A_1  D_1  S_1  
     e( 21 - 21) =      4.98343  eV     1   --> B_2  D_4  S_4  

 **************************************************************************

 **************************************************************************

                    xk=(   0.00000,   0.20207,   0.00000  )

     Band symmetry, C_2v (mm2)  point group:

     e(  1 -  1) =    -57.01417  eV     1   --> A_1  D_1  S_1  
     e(  2 -  2) =    -33.01669  eV     1   --> A_1  D_1  S_1  
     e(  3 -  3) =    -32.97985  eV     1   --> B_2  D_4  S_4  
     e(  4 -  4) =    -32.96685  eV     1   --> B_1  D_3  S_3  
     e(  5 -  5) =    -14.83377  eV     1   --> A_1  D_1  S_1  
     e(  6 -  6) =    -14.04477  eV     1   --> B_2  D_4  S_4  
     e(  7 -  7) =     -6.02314  eV     1   --> A_1  D_1  S_1  
     e(  8 -  8) =     -4.40794  eV     1   --> A_1  D_1  S_1  
     e(  9 -  9) =     -3.85029  eV     1   --> B_2  D_4  S_4  
     e( 10 - 10) =     -3.16030  eV     1   --> B_1  D_3  S_3  
     e( 11 - 11) =     -3.02324  eV     1   --> A_2  D_2  S_2  
     e( 12 - 12) =     -2.44956  eV     1   --> B_2  D_4  S_4  
     e( 13 - 13) =     -1.34920  eV     1   --> A_1  D_1  S_1  
     e( 14 - 14) =      0.82704  eV     1   --> A_1  D_1  S_1  
     e( 15 - 15) =      1.03502  eV     1   --> B_2  D_4  S_4  
     e( 16 - 16) =      1.09903  eV     1   --> B_1  D_3  S_3  
     e( 17 - 17) =      1.85733  eV     1   --> A_2  D_2  S_2  
     e( 18 - 18) =      3.60187  eV     1   --> A_1  D_1  S_1  
     e( 19 - 19) =      3.82616  eV     1   --> B_2  D_4  S_4  
     e( 20 - 20) =      4.08244  eV     1   --> A_1  D_1  S_1  
     e( 21 - 21) =      4.93711  eV     1   --> B_2  D_4  S_4  

 **************************************************************************

 **************************************************************************

                    xk=(   0.00000,   0.19245,   0.00000  )

     Band symmetry, C_2v (mm2)  point group:

     e(  1 -  1) =    -57.01461  eV     1   --> A_1  D_1  S_1  
     e(  2 -  2) =    -33.01187  eV     1   --> A_1  D_1  S_1  
     e(  3 -  3) =    -32.98074  eV     1   --> B_2  D_4  S_4  
     e(  4 -  4) =    -32.96560  eV     1   --> B_1  D_3  S_3  
     e(  5 -  5) =    -14.86136  eV     1   --> A_1  D_1  S_1  
     e(  6 -  6) =    -14.05734  eV     1   --> B_2  D_4  S_4  
     e(  7 -  7) =     -6.05675  eV     1   --> A_1  D_1  S_1  
     e(  8 -  8) =     -4.34017  eV     1   --> A_1  D_1  S_1  
     e(  9 -  9) =     -3.79081  eV     1   --> B_2  D_4  S_4  
     e( 10 - 10) =     -3.18755  eV     1   --> B_1  D_3  S_3  
     e( 11 - 11) =     -2.98362  eV     1   --> A_2  D_2  S_2  
     e( 12 - 12) =     -2.43089  eV     1   --> B_2  D_4  S_4  
     e( 13 - 13) =     -1.31367  eV     1   --> A_1  D_1  S_1  
     e( 14 - 14) =      0.84286  eV     1   --> A_1  D_1  S_1  
     e( 15 - 15) =      1.02575  eV     1   --> B_2  D_4  S_4  
     e( 16 - 16) =      1.12318  eV     1   --> B_1  D_3  S_3  
     e( 17 - 17) =      1.81737  eV     1   --> A_2  D_2  S_2  
     e( 18 - 18) =      3.55467  eV     1   --> A_1  D_1  S_1  
     e( 19 - 19) =      3.78017  eV     1   --> B_2  D_4  S_4  
     e( 20 - 20) =      4.03148  eV     1   --> A_1  D_1  S_1  
     e( 21 - 21) =      4.87830  eV     1   --> A_1  D_1  S_1  

 **************************************************************************

 **************************************************************************

                    xk=(   0.00000,   0.18283,   0.00000  )

     Band symmetry, C_2v (mm2)  point group:

     e(  1 -  1) =    -57.01498  eV     1   --> A_1  D_1  S_1  
     e(  2 -  2) =    -33.00600  eV     1   --> A_1  D_1  S_1  
     e(  3 -  3) =    -32.98234  eV     1   --> B_2  D_4  S_4  
     e(  4 -  4) =    -32.96410  eV     1   --> B_1  D_3  S_3  
     e(  5 -  5) =    -14.88790  eV     1   --> A_1  D_1  S_1  
     e(  6 -  6) =    -14.06950  eV     1   --> B_2  D_4  S_4  
     e(  7 -  7) =     -6.08968  eV     1   --> A_1  D_1  S_1  
     e(  8 -  8) =     -4.27104  eV     1   --> A_1  D_1  S_1  
     e(  9 -  9) =     -3.73310  eV     1   --> B_2  D_4  S_4  
     e( 10 - 10) =     -3.21164  eV     1   --> B_1  D_3  S_3  
     e( 11 - 11) =     -2.94503  eV     1   --> A_2  D_2  S_2  
     e( 12 - 12) =     -2.41442  eV     1   --> B_2  D_4  S_4  
     e( 13 - 13) =     -1.27954  eV     1   --> A_1  D_1  S_1  
     e( 14 - 14) =      0.86547  eV     1   --> A_1  D_1  S_1  
     e( 15 - 15) =      1.01789  eV     1   --> B_2  D_4  S_4  
     e( 16 - 16) =      1.14973  eV     1   --> B_1  D_3  S_3  
     e( 17 - 17) =      1.77645  eV     1   --> A_2  D_2  S_2  
     e( 18 - 18) =      3.50887  eV     1   --> A_1  D_1  S_1  
     e( 19 - 19) =      3.73620  eV     1   --> B_2  D_4  S_4  
     e( 20 - 20) =      3.98093  eV     1   --> A_1  D_1  S_1  
     e( 21 - 21) =      4.79421  eV     1   --> A_1  D_1  S_1  

 **************************************************************************

 **************************************************************************

                    xk=(   0.00000,   0.17321,   0.00000  )

     Band symmetry, C_2v (mm2)  point group:

     e(  1 -  1) =    -57.01543  eV     1   --> A_1  D_1  S_1  
     e(  2 -  2) =    -33.00143  eV     1   --> A_1  D_1  S_1  
     e(  3 -  3) =    -32.98344  eV     1   --> B_2  D_4  S_4  
     e(  4 -  4) =    -32.96304  eV     1   --> B_1  D_3  S_3  
     e(  5 -  5) =    -14.91343  eV     1   --> A_1  D_1  S_1  
     e(  6 -  6) =    -14.08117  eV     1   --> B_2  D_4  S_4  
     e(  7 -  7) =     -6.12187  eV     1   --> A_1  D_1  S_1  
     e(  8 -  8) =     -4.20419  eV     1   --> A_1  D_1  S_1  
     e(  9 -  9) =     -3.67632  eV     1   --> B_2  D_4  S_4  
     e( 10 - 10) =     -3.23683  eV     1   --> B_1  D_3  S_3  
     e( 11 - 11) =     -2.90690  eV     1   --> A_2  D_2  S_2  
     e( 12 - 12) =     -2.40002  eV     1   --> B_2  D_4  S_4  
     e( 13 - 13) =     -1.24740  eV     1   --> A_1  D_1  S_1  
     e( 14 - 14) =      0.88865  eV     1   --> A_1  D_1  S_1  
     e( 15 - 15) =      1.01474  eV     1   --> B_2  D_4  S_4  
     e( 16 - 16) =      1.17303  eV     1   --> B_1  D_3  S_3  
     e( 17 - 17) =      1.73594  eV     1   --> A_2  D_2  S_2  
     e( 18 - 18) =      3.46415  eV     1   --> A_1  D_1  S_1  
     e( 19 - 19) =      3.69431  eV     1   --> B_2  D_4  S_4  
     e( 20 - 20) =      3.93038  eV     1   --> A_1  D_1  S_1  
     e( 21 - 21) =      4.71026  eV     1   --> A_1  D_1  S_1  

 **************************************************************************

 **************************************************************************

                    xk=(   0.00000,   0.16358,   0.00000  )

     Band symmetry, C_2v (mm2)  point group:

     e(  1 -  1) =    -57.01578  eV     1   --> A_1  D_1  S_1  
     e(  2 -  2) =    -32.99650  eV     1   --> A_1  D_1  S_1  
     e(  3 -  3) =    -32.98469  eV     1   --> B_2  D_4  S_4  
     e(  4 -  4) =    -32.96149  eV     1   --> B_1  D_3  S_3  
     e(  5 -  5) =    -14.93786  eV     1   --> A_1  D_1  S_1  
     e(  6 -  6) =    -14.09229  eV     1   --> B_2  D_4  S_4  
     e(  7 -  7) =     -6.15311  eV     1   --> A_1  D_1  S_1  
     e(  8 -  8) =     -4.13693  eV     1   --> A_1  D_1  S_1  
     e(  9 -  9) =     -3.62025  eV     1   --> B_2  D_4  S_4  
     e( 10 - 10) =     -3.26085  eV     1   --> B_1  D_3  S_3  
     e( 11 - 11) =     -2.86928  eV     1   --> A_2  D_2  S_2  
     e( 12 - 12) =     -2.38810  eV     1   --> B_2  D_4  S_4  
     e( 13 - 13) =     -1.21694  eV     1   --> A_1  D_1  S_1  
     e( 14 - 14) =      0.91716  eV     1   --> A_1  D_1  S_1  
     e( 15 - 15) =      1.01620  eV     1   --> B_2  D_4  S_4  
     e( 16 - 16) =      1.19734  eV     1   --> B_1  D_3  S_3  
     e( 17 - 17) =      1.69606  eV     1   --> A_2  D_2  S_2  
     e( 18 - 18) =      3.42053  eV     1   --> A_1  D_1  S_1  
     e( 19 - 19) =      3.65448  eV     1   --> B_2  D_4  S_4  
     e( 20 - 20) =      3.87992  eV     1   --> A_1  D_1  S_1  
     e( 21 - 21) =      4.62796  eV     1   --> A_1  D_1  S_1  

 **************************************************************************

 **************************************************************************

                    xk=(   0.00000,   0.15396,   0.00000  )

     Band symmetry, C_2v (mm2)  point group:

     e(  1 -  1) =    -57.01623  eV     1   --> A_1  D_1  S_1  
     e(  2 -  2) =    -32.99230  eV     1   --> A_1  D_1  S_1  
     e(  3 -  3) =    -32.98609  eV     1   --> B_2  D_4  S_4  
     e(  4 -  4) =    -32.96045  eV     1   --> B_1  D_3  S_3  
     e(  5 -  5) =    -14.96114  eV     1   --> A_1  D_1  S_1  
     e(  6 -  6) =    -14.10293  eV     1   --> B_2  D_4  S_4  
     e(  7 -  7) =     -6.18321  eV     1   --> A_1  D_1  S_1  
     e(  8 -  8) =     -4.07233  eV     1   --> A_1  D_1  S_1  
     e(  9 -  9) =     -3.56642  eV     1   --> B_2  D_4  S_4  
     e( 10 - 10) =     -3.28360  eV     1   --> B_1  D_3  S_3  
     e( 11 - 11) =     -2.83265  eV     1   --> A_2  D_2  S_2  
     e( 12 - 12) =     -2.37920  eV     1   --> B_2  D_4  S_4  
     e( 13 - 13) =     -1.18938  eV     1   --> A_1  D_1  S_1  
     e( 14 - 14) =      0.94656  eV     1   --> A_1  D_1  S_1  
     e( 15 - 15) =      1.01833  eV     1   --> B_2  D_4  S_4  
     e( 16 - 16) =      1.22102  eV     1   --> B_1  D_3  S_3  
     e( 17 - 17) =      1.65664  eV     1   --> A_2  D_2  S_2  
     e( 18 - 18) =      3.37776  eV     1   --> A_1  D_1  S_1  
     e( 19 - 19) =      3.61671  eV     1   --> B_2  D_4  S_4  
     e( 20 - 20) =      3.82935  eV     1   --> A_1  D_1  S_1  
     e( 21 - 21) =      4.54793  eV     1   --> A_1  D_1  S_1  

 **************************************************************************

 **************************************************************************

                    xk=(   0.00000,   0.14434,   0.00000  )

     Band symmetry, C_2v (mm2)  point group:

     e(  1 -  1) =    -57.01657  eV     1   --> A_1  D_1  S_1  
     e(  2 -  3) =    -32.98768  eV     2   --> A_1  D_1  S_1  
     e(  2 -  3) =    -32.98768  eV     2   --> B_2  D_4  S_4  
     e(  4 -  4) =    -32.95909  eV     1   --> B_1  D_3  S_3  
     e(  5 -  5) =    -14.98318  eV     1   --> A_1  D_1  S_1  
     e(  6 -  6) =    -14.11301  eV     1   --> B_2  D_4  S_4  
     e(  7 -  7) =     -6.21191  eV     1   --> A_1  D_1  S_1  
     e(  8 -  8) =     -4.00837  eV     1   --> A_1  D_1  S_1  
     e(  9 -  9) =     -3.51318  eV     1   --> B_2  D_4  S_4  
     e( 10 - 10) =     -3.30432  eV     1   --> B_1  D_3  S_3  
     e( 11 - 11) =     -2.79846  eV     1   --> A_2  D_2  S_2  
     e( 12 - 12) =     -2.37326  eV     1   --> B_2  D_4  S_4  
     e( 13 - 13) =     -1.16234  eV     1   --> A_1  D_1  S_1  
     e( 14 - 14) =      0.98096  eV     1   -->   ?
     e( 15 - 15) =      1.02569  eV     1   -->   ?
     e( 16 - 16) =      1.24574  eV     1   --> B_1  D_3  S_3  
     e( 17 - 17) =      1.61567  eV     1   --> A_2  D_2  S_2  
     e( 18 - 18) =      3.33584  eV     1   --> A_1  D_1  S_1  
     e( 19 - 19) =      3.58105  eV     1   --> B_2  D_4  S_4  
     e( 20 - 20) =      3.77887  eV     1   --> A_1  D_1  S_1  
     e( 21 - 21) =      4.47139  eV     1   --> A_1  D_1  S_1  

 **************************************************************************

 **************************************************************************

                    xk=(   0.00000,   0.13472,   0.00000  )

     Band symmetry, C_2v (mm2)  point group:

     e(  1 -  1) =    -57.01691  eV     1   --> A_1  D_1  S_1  
     e(  2 -  2) =    -32.98828  eV     1   --> B_2  D_4  S_4  
     e(  3 -  3) =    -32.98375  eV     1   --> A_1  D_1  S_1  
     e(  4 -  4) =    -32.95806  eV     1   --> B_1  D_3  S_3  
     e(  5 -  5) =    -15.00403  eV     1   --> A_1  D_1  S_1  
     e(  6 -  6) =    -14.12250  eV     1   --> B_2  D_4  S_4  
     e(  7 -  7) =     -6.23912  eV     1   --> A_1  D_1  S_1  
     e(  8 -  8) =     -3.94687  eV     1   --> A_1  D_1  S_1  
     e(  9 -  9) =     -3.46073  eV     1   --> B_2  D_4  S_4  
     e( 10 - 10) =     -3.32596  eV     1   --> B_1  D_3  S_3  
     e( 11 - 11) =     -2.76396  eV     1   --> A_2  D_2  S_2  
     e( 12 - 12) =     -2.36972  eV     1   --> B_2  D_4  S_4  
     e( 13 - 13) =     -1.13781  eV     1   --> A_1  D_1  S_1  
     e( 14 - 14) =      1.01636  eV     1   -->   ?
     e( 15 - 15) =      1.03866  eV     1   -->   ?
     e( 16 - 16) =      1.26757  eV     1   --> B_1  D_3  S_3  
     e( 17 - 17) =      1.57821  eV     1   --> A_2  D_2  S_2  
     e( 18 - 18) =      3.29425  eV     1   --> A_1  D_1  S_1  
     e( 19 - 19) =      3.54754  eV     1   --> B_2  D_4  S_4  
     e( 20 - 20) =      3.72842  eV     1   --> A_1  D_1  S_1  
     e( 21 - 21) =      4.39926  eV     1   --> A_1  D_1  S_1  

 **************************************************************************

 **************************************************************************

                    xk=(   0.00000,   0.12509,   0.00000  )

     Band symmetry, C_2v (mm2)  point group:

     e(  1 -  1) =    -57.01724  eV     1   --> A_1  D_1  S_1  
     e(  2 -  2) =    -32.98941  eV     1   --> B_2  D_4  S_4  
     e(  3 -  3) =    -32.97976  eV     1   --> A_1  D_1  S_1  
     e(  4 -  4) =    -32.95718  eV     1   --> B_1  D_3  S_3  
     e(  5 -  5) =    -15.02358  eV     1   --> A_1  D_1  S_1  
     e(  6 -  6) =    -14.13141  eV     1   --> B_2  D_4  S_4  
     e(  7 -  7) =     -6.26504  eV     1   --> A_1  D_1  S_1  
     e(  8 -  8) =     -3.88840  eV     1   --> A_1  D_1  S_1  
     e(  9 -  9) =     -3.40981  eV     1   --> B_2  D_4  S_4  
     e( 10 - 10) =     -3.34453  eV     1   --> B_1  D_3  S_3  
     e( 11 - 11) =     -2.73129  eV     1   --> A_2  D_2  S_2  
     e( 12 - 12) =     -2.36938  eV     1   --> B_2  D_4  S_4  
     e( 13 - 13) =     -1.11653  eV     1   --> A_1  D_1  S_1  
     e( 14 - 14) =      1.05254  eV     1   -->   ?
     e( 15 - 15) =      1.05417  eV     1   -->   ?
     e( 16 - 16) =      1.29094  eV     1   --> B_1  D_3  S_3  
     e( 17 - 17) =      1.54078  eV     1   --> A_2  D_2  S_2  
     e( 18 - 18) =      3.25284  eV     1   --> A_1  D_1  S_1  
     e( 19 - 19) =      3.51614  eV     1   --> B_2  D_4  S_4  
     e( 20 - 20) =      3.67844  eV     1   --> A_1  D_1  S_1  
     e( 21 - 21) =      4.33213  eV     1   --> A_1  D_1  S_1  

 **************************************************************************

 **************************************************************************

                    xk=(   0.00000,   0.11547,   0.00000  )

     Band symmetry, C_2v (mm2)  point group:

     e(  1 -  1) =    -57.01749  eV     1   --> A_1  D_1  S_1  
     e(  2 -  2) =    -32.99020  eV     1   --> B_2  D_4  S_4  
     e(  3 -  3) =    -32.97583  eV     1   --> A_1  D_1  S_1  
     e(  4 -  4) =    -32.95603  eV     1   --> B_1  D_3  S_3  
     e(  5 -  5) =    -15.04180  eV     1   --> A_1  D_1  S_1  
[...]
     e(  2 -  2) =    -33.18063  eV     1   --> A'             
     e(  3 -  3) =    -33.01303  eV     1   --> A'             
     e(  4 -  4) =    -32.94339  eV     1   --> A''            
     e(  5 -  5) =    -13.81120  eV     1   --> A'             
     e(  6 -  6) =    -13.58630  eV     1   --> A''            
     e(  7 -  7) =     -6.51123  eV     1   --> A'             
     e(  8 -  8) =     -5.64105  eV     1   --> A''            
     e(  9 -  9) =     -4.95953  eV     1   --> A'             
     e( 10 - 10) =     -4.01622  eV     1   --> A''            
     e( 11 - 11) =     -3.01449  eV     1   --> A''            
     e( 12 - 12) =     -2.65968  eV     1   --> A'             
     e( 13 - 13) =     -1.71643  eV     1   --> A'             
     e( 14 - 14) =      0.84245  eV     1   --> A'             
     e( 15 - 15) =      1.26073  eV     1   --> A'             
     e( 16 - 16) =      2.19385  eV     1   --> A''            
     e( 17 - 17) =      2.59414  eV     1   --> A''            
     e( 18 - 18) =      3.99697  eV     1   --> A'             
     e( 19 - 19) =      5.74121  eV     1   --> A'             
     e( 20 - 20) =      6.07605  eV     1   --> A''            
     e( 21 - 21) =      6.60855  eV     1   --> A''            

 **************************************************************************

 **************************************************************************

                    xk=(  -0.05556,   0.57735,   0.00000  )

     Band symmetry, C_s (m)     point group:

     e(  1 -  1) =    -57.00094  eV     1   --> A'             
     e(  2 -  2) =    -33.18121  eV     1   --> A'             
     e(  3 -  3) =    -33.01217  eV     1   --> A'             
     e(  4 -  4) =    -32.94386  eV     1   --> A''            
     e(  5 -  5) =    -13.81334  eV     1   --> A'             
     e(  6 -  6) =    -13.58761  eV     1   --> A''            
     e(  7 -  7) =     -6.51946  eV     1   --> A'             
     e(  8 -  8) =     -5.63839  eV     1   --> A''            
     e(  9 -  9) =     -4.96115  eV     1   --> A'             
     e( 10 - 10) =     -4.01244  eV     1   --> A''            
     e( 11 - 11) =     -3.01509  eV     1   --> A''            
     e( 12 - 12) =     -2.61898  eV     1   --> A'             
     e( 13 - 13) =     -1.73104  eV     1   --> A'             
     e( 14 - 14) =      0.84008  eV     1   --> A'             
     e( 15 - 15) =      1.25815  eV     1   --> A'             
     e( 16 - 16) =      2.18465  eV     1   --> A''            
     e( 17 - 17) =      2.61064  eV     1   --> A''            
     e( 18 - 18) =      3.98522  eV     1   --> A'             
     e( 19 - 19) =      5.71565  eV     1   --> A'             
     e( 20 - 20) =      6.03554  eV     1   --> A''            
     e( 21 - 21) =      6.60057  eV     1   --> A''            

 **************************************************************************

 **************************************************************************

                    xk=(  -0.05000,   0.57735,   0.00000  )

     Band symmetry, C_s (m)     point group:

     e(  1 -  1) =    -57.00102  eV     1   --> A'             
     e(  2 -  2) =    -33.18162  eV     1   --> A'             
     e(  3 -  3) =    -33.01172  eV     1   --> A'             
     e(  4 -  4) =    -32.94416  eV     1   --> A''            
     e(  5 -  5) =    -13.81528  eV     1   --> A'             
     e(  6 -  6) =    -13.58875  eV     1   --> A''            
     e(  7 -  7) =     -6.52696  eV     1   --> A'             
     e(  8 -  8) =     -5.63590  eV     1   --> A''            
     e(  9 -  9) =     -4.96318  eV     1   --> A'             
     e( 10 - 10) =     -4.00891  eV     1   --> A''            
     e( 11 - 11) =     -3.01557  eV     1   --> A''            
     e( 12 - 12) =     -2.58041  eV     1   --> A'             
     e( 13 - 13) =     -1.74688  eV     1   --> A'             
     e( 14 - 14) =      0.83850  eV     1   --> A'             
     e( 15 - 15) =      1.25585  eV     1   --> A'             
     e( 16 - 16) =      2.17673  eV     1   --> A''            
     e( 17 - 17) =      2.62625  eV     1   --> A''            
     e( 18 - 18) =      3.97396  eV     1   --> A'             
     e( 19 - 19) =      5.69208  eV     1   --> A'             
     e( 20 - 20) =      5.99823  eV     1   --> A''            
     e( 21 - 21) =      6.59393  eV     1   --> A''            

 **************************************************************************

 **************************************************************************

                    xk=(  -0.04444,   0.57735,   0.00000  )

     Band symmetry, C_s (m)     point group:

     e(  1 -  1) =    -57.00095  eV     1   --> A'             
     e(  2 -  2) =    -33.18190  eV     1   --> A'             
     e(  3 -  3) =    -33.01048  eV     1   --> A'             
     e(  4 -  4) =    -32.94367  eV     1   --> A''            
     e(  5 -  5) =    -13.81698  eV     1   --> A'             
     e(  6 -  6) =    -13.58974  eV     1   --> A''            
     e(  7 -  7) =     -6.53360  eV     1   --> A'             
     e(  8 -  8) =     -5.63341  eV     1   --> A''            
     e(  9 -  9) =     -4.96478  eV     1   --> A'             
     e( 10 - 10) =     -4.00312  eV     1   --> A''            
     e( 11 - 11) =     -3.01595  eV     1   --> A''            
     e( 12 - 12) =     -2.54403  eV     1   --> A'             
     e( 13 - 13) =     -1.76207  eV     1   --> A'             
     e( 14 - 14) =      0.83802  eV     1   --> A'             
     e( 15 - 15) =      1.25635  eV     1   --> A'             
     e( 16 - 16) =      2.17061  eV     1   --> A''            
     e( 17 - 17) =      2.64708  eV     1   --> A''            
     e( 18 - 18) =      3.96402  eV     1   --> A'             
     e( 19 - 19) =      5.67102  eV     1   --> A'             
     e( 20 - 20) =      5.96440  eV     1   --> A''            
     e( 21 - 21) =      6.58844  eV     1   --> A''            

 **************************************************************************

 **************************************************************************

                    xk=(  -0.03889,   0.57735,   0.00000  )

     Band symmetry, C_s (m)     point group:

     e(  1 -  1) =    -57.00102  eV     1   --> A'             
     e(  2 -  2) =    -33.18225  eV     1   --> A'             
     e(  3 -  3) =    -33.01038  eV     1   --> A'             
     e(  4 -  4) =    -32.94375  eV     1   --> A''            
     e(  5 -  5) =    -13.81855  eV     1   --> A'             
     e(  6 -  6) =    -13.59065  eV     1   --> A''            
     e(  7 -  7) =     -6.53957  eV     1   --> A'             
     e(  8 -  8) =     -5.63147  eV     1   --> A''            
     e(  9 -  9) =     -4.96704  eV     1   --> A'             
     e( 10 - 10) =     -3.99937  eV     1   --> A''            
     e( 11 - 11) =     -3.01645  eV     1   --> A''            
     e( 12 - 12) =     -2.51081  eV     1   --> A'             
     e( 13 - 13) =     -1.77830  eV     1   --> A'             
     e( 14 - 14) =      0.83569  eV     1   --> A'             
     e( 15 - 15) =      1.25539  eV     1   --> A'             
     e( 16 - 16) =      2.16416  eV     1   --> A''            
     e( 17 - 17) =      2.66226  eV     1   --> A''            
     e( 18 - 18) =      3.95463  eV     1   --> A'             
     e( 19 - 19) =      5.65187  eV     1   --> A'             
     e( 20 - 20) =      5.93393  eV     1   --> A''            
     e( 21 - 21) =      6.58344  eV     1   --> A''            

 **************************************************************************

 **************************************************************************

                    xk=(  -0.03333,   0.57735,   0.00000  )

     Band symmetry, C_s (m)     point group:

     e(  1 -  1) =    -57.00101  eV     1   --> A'             
     e(  2 -  2) =    -33.18253  eV     1   --> A'             
     e(  3 -  3) =    -33.00971  eV     1   --> A'             
     e(  4 -  4) =    -32.94360  eV     1   --> A''            
     e(  5 -  5) =    -13.81988  eV     1   --> A'             
     e(  6 -  6) =    -13.59144  eV     1   --> A''            
     e(  7 -  7) =     -6.54467  eV     1   --> A'             
     e(  8 -  8) =     -5.62976  eV     1   --> A''            
     e(  9 -  9) =     -4.96834  eV     1   --> A'             
     e( 10 - 10) =     -3.99546  eV     1   --> A''            
     e( 11 - 11) =     -3.01690  eV     1   --> A''            
     e( 12 - 12) =     -2.48017  eV     1   --> A'             
     e( 13 - 13) =     -1.79261  eV     1   --> A'             
     e( 14 - 14) =      0.83413  eV     1   --> A'             
     e( 15 - 15) =      1.25573  eV     1   --> A'             
     e( 16 - 16) =      2.15853  eV     1   --> A''            
     e( 17 - 17) =      2.67752  eV     1   --> A''            
     e( 18 - 18) =      3.94670  eV     1   --> A'             
     e( 19 - 19) =      5.63555  eV     1   --> A'             
     e( 20 - 20) =      5.90709  eV     1   --> A''            
     e( 21 - 21) =      6.57919  eV     1   --> A''            

 **************************************************************************

 **************************************************************************

                    xk=(  -0.02778,   0.57735,   0.00000  )

     Band symmetry, C_s (m)     point group:

     e(  1 -  1) =    -57.00111  eV     1   --> A'             
     e(  2 -  2) =    -33.18293  eV     1   --> A'             
     e(  3 -  3) =    -33.00959  eV     1   --> A'             
     e(  4 -  4) =    -32.94400  eV     1   --> A''            
     e(  5 -  5) =    -13.82104  eV     1   --> A'             
     e(  6 -  6) =    -13.59214  eV     1   --> A''            
     e(  7 -  7) =     -6.54905  eV     1   --> A'             
     e(  8 -  8) =     -5.62858  eV     1   --> A''            
     e(  9 -  9) =     -4.96994  eV     1   --> A'             
     e( 10 - 10) =     -3.99313  eV     1   --> A''            
     e( 11 - 11) =     -3.01768  eV     1   --> A''            
     e( 12 - 12) =     -2.45319  eV     1   --> A'             
     e( 13 - 13) =     -1.80663  eV     1   --> A'             
     e( 14 - 14) =      0.83191  eV     1   --> A'             
     e( 15 - 15) =      1.25503  eV     1   --> A'             
     e( 16 - 16) =      2.15189  eV     1   --> A''            
     e( 17 - 17) =      2.68831  eV     1   --> A''            
     e( 18 - 18) =      3.93970  eV     1   --> A'             
     e( 19 - 19) =      5.62142  eV     1   --> A'             
     e( 20 - 20) =      5.88376  eV     1   --> A''            
     e( 21 - 21) =      6.57494  eV     1   --> A''            

 **************************************************************************

 **************************************************************************

                    xk=(  -0.02222,   0.57735,   0.00000  )

     Band symmetry, C_s (m)     point group:

     e(  1 -  1) =    -57.00106  eV     1   --> A'             
     e(  2 -  2) =    -33.18309  eV     1   --> A'             
     e(  3 -  3) =    -33.00865  eV     1   --> A'             
     e(  4 -  4) =    -32.94401  eV     1   --> A''            
     e(  5 -  5) =    -13.82195  eV     1   --> A'             
     e(  6 -  6) =    -13.59269  eV     1   --> A''            
     e(  7 -  7) =     -6.55254  eV     1   --> A'             
     e(  8 -  8) =     -5.62741  eV     1   --> A''            
     e(  9 -  9) =     -4.97021  eV     1   --> A'             
     e( 10 - 10) =     -3.99042  eV     1   --> A''            
     e( 11 - 11) =     -3.01806  eV     1   --> A''            
     e( 12 - 12) =     -2.42994  eV     1   --> A'             
     e( 13 - 13) =     -1.81687  eV     1   --> A'             
     e( 14 - 14) =      0.83142  eV     1   --> A'             
     e( 15 - 15) =      1.25483  eV     1   --> A'             
     e( 16 - 16) =      2.14785  eV     1   --> A''            
     e( 17 - 17) =      2.69900  eV     1   --> A''            
     e( 18 - 18) =      3.93443  eV     1   --> A'             
     e( 19 - 19) =      5.61043  eV     1   --> A'             
     e( 20 - 20) =      5.86469  eV     1   --> A''            
     e( 21 - 21) =      6.57208  eV     1   --> A''            

 **************************************************************************

 **************************************************************************

                    xk=(  -0.01667,   0.57735,   0.00000  )

     Band symmetry, C_s (m)     point group:

     e(  1 -  1) =    -57.00107  eV     1   --> A'             
     e(  2 -  2) =    -33.18324  eV     1   --> A'             
     e(  3 -  3) =    -33.00834  eV     1   --> A'             
     e(  4 -  4) =    -32.94404  eV     1   --> A''            
     e(  5 -  5) =    -13.82268  eV     1   --> A'             
     e(  6 -  6) =    -13.59312  eV     1   --> A''            
     e(  7 -  7) =     -6.55531  eV     1   --> A'             
     e(  8 -  8) =     -5.62651  eV     1   --> A''            
     e(  9 -  9) =     -4.97092  eV     1   --> A'             
     e( 10 - 10) =     -3.98846  eV     1   --> A''            
     e( 11 - 11) =     -3.01838  eV     1   --> A''            
     e( 12 - 12) =     -2.41119  eV     1   --> A'             
     e( 13 - 13) =     -1.82666  eV     1   --> A'             
     e( 14 - 14) =      0.83038  eV     1   --> A'             
     e( 15 - 15) =      1.25466  eV     1   --> A'             
     e( 16 - 16) =      2.14465  eV     1   --> A''            
     e( 17 - 17) =      2.70697  eV     1   --> A''            
     e( 18 - 18) =      3.92999  eV     1   --> A'             
     e( 19 - 19) =      5.60157  eV     1   --> A'             
     e( 20 - 20) =      5.84971  eV     1   --> A''            
     e( 21 - 21) =      6.56987  eV     1   --> A''            

 **************************************************************************

 **************************************************************************

                    xk=(  -0.01111,   0.57735,   0.00000  )

     Band symmetry, C_s (m)     point group:

     e(  1 -  1) =    -57.00111  eV     1   --> A'             
     e(  2 -  2) =    -33.18358  eV     1   --> A'             
     e(  3 -  3) =    -33.00807  eV     1   --> A'             
     e(  4 -  4) =    -32.94418  eV     1   --> A''            
     e(  5 -  5) =    -13.82321  eV     1   --> A'             
     e(  6 -  6) =    -13.59344  eV     1   --> A''            
     e(  7 -  7) =     -6.55727  eV     1   --> A'             
     e(  8 -  8) =     -5.62605  eV     1   --> A''            
     e(  9 -  9) =     -4.97110  eV     1   --> A'             
     e( 10 - 10) =     -3.98704  eV     1   --> A''            
     e( 11 - 11) =     -3.01884  eV     1   --> A''            
     e( 12 - 12) =     -2.39754  eV     1   --> A'             
     e( 13 - 13) =     -1.83347  eV     1   --> A'             
     e( 14 - 14) =      0.82719  eV     1   --> A'             
     e( 15 - 15) =      1.25446  eV     1   --> A'             
     e( 16 - 16) =      2.14145  eV     1   --> A''            
     e( 17 - 17) =      2.71210  eV     1   --> A''            
     e( 18 - 18) =      3.92697  eV     1   --> A'             
     e( 19 - 19) =      5.59536  eV     1   --> A'             
     e( 20 - 20) =      5.83878  eV     1   --> A''            
     e( 21 - 21) =      6.56792  eV     1   --> A''            

 **************************************************************************

 **************************************************************************

                    xk=(  -0.00556,   0.57735,   0.00000  )

     Band symmetry, C_s (m)     point group:

     e(  1 -  1) =    -57.00111  eV     1   --> A'             
     e(  2 -  2) =    -33.18332  eV     1   --> A'             
     e(  3 -  3) =    -33.00841  eV     1   --> A'             
     e(  4 -  4) =    -32.94404  eV     1   --> A''            
     e(  5 -  5) =    -13.82352  eV     1   --> A'             
     e(  6 -  6) =    -13.59361  eV     1   --> A''            
     e(  7 -  7) =     -6.55844  eV     1   --> A'             
     e(  8 -  8) =     -5.62546  eV     1   --> A''            
     e(  9 -  9) =     -4.97201  eV     1   --> A'             
     e( 10 - 10) =     -3.98615  eV     1   --> A''            
     e( 11 - 11) =     -3.01859  eV     1   --> A''            
     e( 12 - 12) =     -2.38919  eV     1   --> A'             
     e( 13 - 13) =     -1.83930  eV     1   --> A'             
     e( 14 - 14) =      0.82747  eV     1   --> A'             
     e( 15 - 15) =      1.25488  eV     1   --> A'             
     e( 16 - 16) =      2.14173  eV     1   --> A''            
     e( 17 - 17) =      2.71560  eV     1   --> A''            
     e( 18 - 18) =      3.92478  eV     1   --> A'             
     e( 19 - 19) =      5.59121  eV     1   --> A'             
     e( 20 - 20) =      5.83247  eV     1   --> A''            
     e( 21 - 21) =      6.56770  eV     1   --> A''            

 **************************************************************************

 **************************************************************************

                    xk=(   0.00000,   0.57735,   0.00000  )

     point group C_2v (mm2) 
     there are  4 classes
     the character table:

       E     C2    s_v   s_v' 
A_1    1.00  1.00  1.00  1.00
A_2    1.00  1.00 -1.00 -1.00
B_1    1.00 -1.00  1.00 -1.00
B_2    1.00 -1.00 -1.00  1.00

     the symmetry operations in each class and the name of the first element:

     E        1
                                                                 
     C2       2
                                                                 
     s_v      3
                                                                 
     s_v'     4
                                                                 

     Band symmetry, C_2v (mm2)  point group:

     e(  1 -  1) =    -57.00106  eV     1   --> A_1  D_1  S_1  
     e(  2 -  2) =    -33.18317  eV     1   --> A_1  D_1  S_1  
     e(  3 -  3) =    -33.00802  eV     1   --> B_1  D_3  S_3  
     e(  4 -  4) =    -32.94398  eV     1   --> B_2  D_4  S_4  
     e(  5 -  5) =    -13.82362  eV     1   --> A_1  D_1  S_1  
     e(  6 -  6) =    -13.59367  eV     1   --> B_2  D_4  S_4  
     e(  7 -  7) =     -6.55883  eV     1   --> A_1  D_1  S_1  
     e(  8 -  8) =     -5.62526  eV     1   --> B_2  D_4  S_4  
     e(  9 -  9) =     -4.97197  eV     1   --> A_1  D_1  S_1  
     e( 10 - 10) =     -3.98558  eV     1   --> A_2  D_2  S_2  
     e( 11 - 11) =     -3.01857  eV     1   --> B_2  D_4  S_4  
     e( 12 - 12) =     -2.38621  eV     1   --> B_1  D_3  S_3  
     e( 13 - 13) =     -1.84046  eV     1   --> A_1  D_1  S_1  
     e( 14 - 14) =      0.83029  eV     1   --> B_1  D_3  S_3  
     e( 15 - 15) =      1.25493  eV     1   --> A_1  D_1  S_1  
     e( 16 - 16) =      2.14163  eV     1   --> B_2  D_4  S_4  
     e( 17 - 17) =      2.71760  eV     1   --> A_2  D_2  S_2  
     e( 18 - 18) =      3.92418  eV     1   --> A_1  D_1  S_1  
     e( 19 - 19) =      5.59004  eV     1   --> A_1  D_1  S_1  
     e( 20 - 20) =      5.83034  eV     1   --> B_2  D_4  S_4  
     e( 21 - 21) =      6.56752  eV     1   --> B_2  D_4  S_4  

 **************************************************************************
 
     BANDS        :     22.22s CPU     28.10s WALL

 
   This run was terminated on:  20:28:48   7Sep2020            

=------------------------------------------------------------------------------=
   JOB DONE.
=------------------------------------------------------------------------------=
