
     Program PWSCF v.6.6 starts on  7Sep2020 at 20:36:28 

     This program is part of the open-source Quantum ESPRESSO suite
     for quantum simulation of materials; please cite
         "P. Giannozzi et al., J. Phys.:Condens. Matter 21 395502 (2009);
         "P. Giannozzi et al., J. Phys.:Condens. Matter 29 465901 (2017);
          URL http://www.quantum-espresso.org", 
     in publications or presentations arising from this work. More details at
     http://www.quantum-espresso.org/quote

     Parallel version (MPI), running on    44 processors

     MPI processes distributed on     1 nodes
     R & G space division:  proc/nbgrp/npool/nimage =      44
     Fft bands division:     nmany     =       1
     Reading input from 1-nscf.in

     Current dimensions of program PWSCF are:
     Max number of different atomic species (ntypx) = 10
     Max number of k-points (npk) =  40000
     Max angular momentum in pseudopotentials (lmaxx) =  3

     Atomic positions and unit cell read from directory:
     ./outdir/nbse2.save/
     Atomic positions from file used, from input discarded
 
     file Se.rel-pbe-n-kjpaw_psl.0.2.UPF: wavefunction(s)  4S 4P renormalized
     file Nb.rel-pbe-spn-kjpaw_psl.1.0.0.UPF: wavefunction(s)  4S 4P 4P 4D renormalized

     Subspace diagonalization in iterative solution of the eigenvalue problem:
     a serial algorithm will be used

 
     Parallelization info
     --------------------
     sticks:   dense  smooth     PW     G-vecs:    dense   smooth      PW
     Min          15      15      4                 2085     2085     326
     Max          16      16      5                 2104     2104     347
     Sum         661     661    199                92285    92285   14831
 


     bravais-lattice index     =            4
     lattice parameter (alat)  =       6.5940  a.u.
     unit-cell volume          =    1662.8322 (a.u.)^3
     number of atoms/cell      =            3
     number of atomic types    =            2
     number of electrons       =        25.00
     number of Kohn-Sham states=           34
     kinetic-energy cutoff     =      55.2247  Ry
     charge density cutoff     =     220.8988  Ry
     Exchange-correlation= SLA PW PBX PBC
                           (   1   4   3   4   0   0   0)
     Non magnetic calculation with spin-orbit


     celldm(1)=   6.594010  celldm(2)=   0.000000  celldm(3)=   6.696825
     celldm(4)=   0.000000  celldm(5)=   0.000000  celldm(6)=   0.000000

     crystal axes: (cart. coord. in units of alat)
               a(1) = (   1.000000   0.000000   0.000000 )  
               a(2) = (  -0.500000   0.866025   0.000000 )  
               a(3) = (   0.000000   0.000000   6.696825 )  

     reciprocal axes: (cart. coord. in units 2 pi/alat)
               b(1) = (  1.000000  0.577350  0.000000 )  
               b(2) = (  0.000000  1.154701  0.000000 )  
               b(3) = (  0.000000  0.000000  0.149325 )  


     PseudoPot. # 1 for Se read from file:
     ../Pseudos/Se.rel-pbe-n-kjpaw_psl.0.2.UPF
     MD5 check sum: 45c28741602d7a872c405fe9dd485dc8
     Pseudo is Projector augmented-wave + core cor, Zval =  6.0
     Generated using "atomic" code by A. Dal Corso v.5.0.2 svn rev. 9415
     Shape of augmentation charge: PSQ
     Using radial grid of 1211 points,  6 beta functions with: 
                l(1) =   0
                l(2) =   0
                l(3) =   1
                l(4) =   1
                l(5) =   1
                l(6) =   1
     Q(r) pseudized with 0 coefficients 


     PseudoPot. # 2 for Nb read from file:
     ../Pseudos/Nb.rel-pbe-spn-kjpaw_psl.1.0.0.UPF
     MD5 check sum: 2306cb666db741a7975d44936f4113f9
     Pseudo is Projector augmented-wave + core cor, Zval = 13.0
     Generated using "atomic" code by A. Dal Corso v.6.2.2
     Shape of augmentation charge: PSQ
     Using radial grid of 1227 points, 10 beta functions with: 
                l(1) =   0
                l(2) =   0
                l(3) =   1
                l(4) =   1
                l(5) =   1
                l(6) =   1
                l(7) =   2
                l(8) =   2
                l(9) =   2
               l(10) =   2
     Q(r) pseudized with 0 coefficients 


     atomic species   valence    mass     pseudopotential
        Se             6.00    78.96000     Se( 1.00)
        Nb            13.00    92.90638     Nb( 1.00)

     12 Sym. Ops. (no inversion) found



   Cartesian axes

     site n.     atom                  positions (alat units)
         1           Se  tau(   1) = (   0.0000000   0.5773508   3.8310119  )
         2           Nb  tau(   2) = (   0.0000000   0.0000000   3.3484172  )
         3           Se  tau(   3) = (   0.0000000   0.5773508   2.8658222  )

     number of k points=    61 (tetrahedron method)
                       cart. coord. in units 2pi/alat
        k(    1) = (   0.0000000   0.0000000   0.0000000), wk =   0.0017361
        k(    2) = (   0.0000000   0.0481125   0.0000000), wk =   0.0104167
        k(    3) = (   0.0000000   0.0962250   0.0000000), wk =   0.0104167
        k(    4) = (   0.0000000   0.1443376   0.0000000), wk =   0.0104167
        k(    5) = (   0.0000000   0.1924501   0.0000000), wk =   0.0104167
        k(    6) = (   0.0000000   0.2405626   0.0000000), wk =   0.0104167
        k(    7) = (   0.0000000   0.2886751   0.0000000), wk =   0.0104167
        k(    8) = (   0.0000000   0.3367877   0.0000000), wk =   0.0104167
        k(    9) = (   0.0000000   0.3849002   0.0000000), wk =   0.0104167
        k(   10) = (   0.0000000   0.4330127   0.0000000), wk =   0.0104167
        k(   11) = (   0.0000000   0.4811252   0.0000000), wk =   0.0104167
        k(   12) = (   0.0000000   0.5292377   0.0000000), wk =   0.0104167
        k(   13) = (   0.0000000  -0.5773503   0.0000000), wk =   0.0052083
        k(   14) = (   0.0416667   0.0721688   0.0000000), wk =   0.0104167
        k(   15) = (   0.0416667   0.1202813   0.0000000), wk =   0.0208333
        k(   16) = (   0.0416667   0.1683938   0.0000000), wk =   0.0208333
        k(   17) = (   0.0416667   0.2165064   0.0000000), wk =   0.0208333
        k(   18) = (   0.0416667   0.2646189   0.0000000), wk =   0.0208333
        k(   19) = (   0.0416667   0.3127314   0.0000000), wk =   0.0208333
        k(   20) = (   0.0416667   0.3608439   0.0000000), wk =   0.0208333
        k(   21) = (   0.0416667   0.4089564   0.0000000), wk =   0.0208333
        k(   22) = (   0.0416667   0.4570690   0.0000000), wk =   0.0208333
        k(   23) = (   0.0416667   0.5051815   0.0000000), wk =   0.0208333
        k(   24) = (   0.0416667   0.5532940   0.0000000), wk =   0.0208333
        k(   25) = (   0.0833333   0.1443376   0.0000000), wk =   0.0104167
        k(   26) = (   0.0833333   0.1924501   0.0000000), wk =   0.0208333
        k(   27) = (   0.0833333   0.2405626   0.0000000), wk =   0.0208333
        k(   28) = (   0.0833333   0.2886751   0.0000000), wk =   0.0208333
        k(   29) = (   0.0833333   0.3367877   0.0000000), wk =   0.0208333
        k(   30) = (   0.0833333   0.3849002   0.0000000), wk =   0.0208333
        k(   31) = (   0.0833333   0.4330127   0.0000000), wk =   0.0208333
        k(   32) = (   0.0833333   0.4811252   0.0000000), wk =   0.0208333
        k(   33) = (   0.0833333   0.5292377   0.0000000), wk =   0.0208333
        k(   34) = (   0.0833333   0.5773503   0.0000000), wk =   0.0104167
        k(   35) = (   0.1250000   0.2165064   0.0000000), wk =   0.0104167
        k(   36) = (   0.1250000   0.2646189   0.0000000), wk =   0.0208333
        k(   37) = (   0.1250000   0.3127314   0.0000000), wk =   0.0208333
        k(   38) = (   0.1250000   0.3608439   0.0000000), wk =   0.0208333
        k(   39) = (   0.1250000   0.4089564   0.0000000), wk =   0.0208333
        k(   40) = (   0.1250000   0.4570690   0.0000000), wk =   0.0208333
        k(   41) = (   0.1250000   0.5051815   0.0000000), wk =   0.0208333
        k(   42) = (   0.1250000   0.5532940   0.0000000), wk =   0.0208333
        k(   43) = (   0.1666667   0.2886751   0.0000000), wk =   0.0104167
        k(   44) = (   0.1666667   0.3367877   0.0000000), wk =   0.0208333
        k(   45) = (   0.1666667   0.3849002   0.0000000), wk =   0.0208333
        k(   46) = (   0.1666667   0.4330127   0.0000000), wk =   0.0208333
        k(   47) = (   0.1666667   0.4811252   0.0000000), wk =   0.0208333
        k(   48) = (   0.1666667   0.5292377   0.0000000), wk =   0.0208333
        k(   49) = (   0.1666667   0.5773503   0.0000000), wk =   0.0104167
        k(   50) = (   0.2083333   0.3608439   0.0000000), wk =   0.0104167
        k(   51) = (   0.2083333   0.4089564   0.0000000), wk =   0.0208333
        k(   52) = (   0.2083333   0.4570690   0.0000000), wk =   0.0208333
        k(   53) = (   0.2083333   0.5051815   0.0000000), wk =   0.0208333
        k(   54) = (   0.2083333   0.5532940   0.0000000), wk =   0.0208333
        k(   55) = (   0.2500000   0.4330127   0.0000000), wk =   0.0104167
        k(   56) = (   0.2500000   0.4811252   0.0000000), wk =   0.0208333
        k(   57) = (   0.2500000   0.5292377   0.0000000), wk =   0.0208333
        k(   58) = (   0.2500000   0.5773503   0.0000000), wk =   0.0104167
        k(   59) = (   0.2916667   0.5051815   0.0000000), wk =   0.0104167
        k(   60) = (   0.2916667   0.5532940   0.0000000), wk =   0.0208333
        k(   61) = (   0.3333333   0.5773503   0.0000000), wk =   0.0034722

     Dense  grid:    92285 G-vectors     FFT dimensions: (  32,  32, 216)

     Estimated max dynamical RAM per process >      27.87 MB

     Estimated total dynamical RAM >       1.20 GB

     The potential is recalculated from file :
     ./outdir/nbse2.save/charge-density


     negative rho (up, down):  3.446E-03 0.000E+00
     Starting wfcs are   42 randomized atomic wfcs
     Checking if some PAW data can be deallocated... 

     Band Structure Calculation
     Davidson diagonalization with overlap

     ethr =  4.00E-11,  avg # of iterations = 20.6

     total cpu time spent up to now is       59.3 secs

     End of band structure calculation

          k = 0.0000 0.0000 0.0000 ( 11535 PWs)   bands (ev):

   -56.6655 -56.6655 -34.1376 -34.1376 -32.0436 -32.0436 -31.9993 -31.9993
   -15.1151 -15.1151 -14.1663 -14.1663  -6.4114  -6.4114  -3.5174  -3.5174
    -3.4237  -3.4237  -2.9423  -2.9423  -2.5915  -2.5915  -2.3823  -2.3823
    -0.9936  -0.9936   1.1727   1.1727   1.3625   1.3625   1.3750   1.3750
     1.5321   1.5321

          k = 0.0000 0.0481 0.0000 ( 11549 PWs)   bands (ev):

   -56.6652 -56.6652 -34.1387 -34.1387 -32.0439 -32.0439 -32.0020 -32.0020
   -15.0962 -15.0962 -14.1576 -14.1576  -6.3856  -6.3856  -3.5582  -3.5581
    -3.4316  -3.4316  -3.0339  -3.0337  -2.5859  -2.5859  -2.3761  -2.3761
    -1.0080  -1.0080   1.1614   1.1615   1.3072   1.3074   1.3731   1.3731
     1.4795   1.4795

          k = 0.0000 0.0962 0.0000 ( 11517 PWs)   bands (ev):

   -56.6642 -56.6642 -34.1420 -34.1420 -32.0451 -32.0451 -32.0094 -32.0094
   -15.0401 -15.0401 -14.1320 -14.1319  -6.3100  -6.3100  -3.7287  -3.7285
    -3.4059  -3.4059  -3.2215  -3.2211  -2.6536  -2.6536  -2.3480  -2.3479
    -1.0568  -1.0566   1.0872   1.0873   1.1525   1.1527   1.3582   1.3584
     1.4669   1.4671

          k = 0.0000 0.1443 0.0000 ( 11527 PWs)   bands (ev):

   -56.6627 -56.6627 -34.1473 -34.1473 -32.0486 -32.0486 -32.0195 -32.0195
   -14.9493 -14.9493 -14.0904 -14.0904  -6.1902  -6.1901  -3.9980  -3.9979
    -3.5192  -3.5191  -3.2737  -3.2735  -2.7975  -2.7974  -2.3486  -2.3485
    -1.1525  -1.1523   0.9659   0.9661   1.0165   1.0165   1.2485   1.2486
     1.6176   1.6176

          k = 0.0000 0.1925 0.0000 ( 11499 PWs)   bands (ev):

   -56.6606 -56.6606 -34.1543 -34.1543 -32.0578 -32.0578 -32.0278 -32.0278
   -14.8278 -14.8277 -14.0349 -14.0348  -6.0371  -6.0370  -4.3213  -4.3212
    -3.7877  -3.7875  -3.1719  -3.1718  -2.9779  -2.9778  -2.4093  -2.4093
    -1.3029  -1.3027   0.8369   0.8370   1.0084   1.0084   1.1303   1.1304
     1.8083   1.8083

          k = 0.0000 0.2406 0.0000 ( 11477 PWs)   bands (ev):

   -56.6582 -56.6582 -34.1626 -34.1626 -32.0741 -32.0741 -32.0316 -32.0316
   -14.6812 -14.6811 -13.9680 -13.9679  -5.8717  -5.8716  -4.6583  -4.6582
    -4.0875  -4.0873  -3.1711  -3.1711  -3.0445  -3.0444  -2.5130  -2.5129
    -1.4950  -1.4949   0.7808   0.7810   0.9935   0.9935   1.1202   1.1203
     2.0053   2.0054

          k = 0.0000 0.2887 0.0000 ( 11488 PWs)   bands (ev):

   -56.6557 -56.6557 -34.1716 -34.1716 -32.0943 -32.0943 -32.0328 -32.0328
   -14.5171 -14.5170 -13.8934 -13.8933  -5.7409  -5.7408  -4.9556  -4.9554
    -4.4015  -4.4014  -3.3594  -3.3594  -2.9218  -2.9217  -2.6174  -2.6174
    -1.6929  -1.6928   0.7937   0.7939   0.9014   0.9014   1.2802   1.2803
     2.1891   2.1891

          k = 0.0000 0.3368 0.0000 ( 11514 PWs)   bands (ev):

   -56.6533 -56.6533 -34.1808 -34.1808 -32.1151 -32.1151 -32.0329 -32.0329
   -14.3449 -14.3448 -13.8156 -13.8154  -5.7524  -5.7522  -5.1092  -5.1088
    -4.7123  -4.7123  -3.5327  -3.5327  -2.8666  -2.8665  -2.6466  -2.6465
    -1.8528  -1.8527   0.8266   0.8266   0.8636   0.8637   1.4845   1.4845
     2.3479   2.3479

          k = 0.0000 0.3849 0.0000 ( 11528 PWs)   bands (ev):

   -56.6510 -56.6510 -34.1895 -34.1895 -32.1346 -32.1346 -32.0326 -32.0326
   -14.1760 -14.1758 -13.7398 -13.7397  -5.9404  -5.9402  -5.1035  -5.1029
    -4.9878  -4.9874  -3.6828  -3.6828  -2.9110  -2.9109  -2.5682  -2.5681
    -1.9408  -1.9407   0.7955   0.7955   0.9514   0.9515   1.6950   1.6951
     2.4760   2.4760

          k = 0.0000 0.4330 0.0000 ( 11536 PWs)   bands (ev):

   -56.6491 -56.6491 -34.1970 -34.1970 -32.1513 -32.1513 -32.0322 -32.0322
   -14.0232 -14.0231 -13.6721 -13.6719  -6.1689  -6.1688  -5.2663  -5.2660
    -5.0140  -5.0139  -3.8044  -3.8044  -2.9672  -2.9671  -2.4762  -2.4762
    -1.9475  -1.9475   0.7913   0.7913   1.0528   1.0529   1.8825   1.8826
     2.5725   2.5726

          k = 0.0000 0.4811 0.0000 ( 11554 PWs)   bands (ev):

   -56.6476 -56.6476 -34.2029 -34.2029 -32.1641 -32.1641 -32.0318 -32.0318
   -13.9005 -13.9004 -13.6182 -13.6181  -6.3608  -6.3608  -5.4539  -5.4538
    -4.9781  -4.9781  -3.8937  -3.8936  -3.0085  -3.0085  -2.4044  -2.4044
    -1.8960  -1.8960   0.8061   0.8061   1.1480   1.1481   2.0257   2.0257
     2.6390   2.6390

          k = 0.0000 0.5292 0.0000 ( 11532 PWs)   bands (ev):

   -56.6466 -56.6466 -34.2066 -34.2066 -32.1720 -32.1720 -32.0315 -32.0315
   -13.8206 -13.8205 -13.5834 -13.5834  -6.4859  -6.4859  -5.5733  -5.5732
    -4.9622  -4.9622  -3.9481  -3.9481  -3.0326  -3.0325  -2.3602  -2.3602
    -1.8330  -1.8330   0.8244   0.8244   1.2189   1.2189   2.1133   2.1133
     2.6777   2.6777

          k = 0.0000-0.5774 0.0000 ( 11542 PWs)   bands (ev):

   -56.6463 -56.6463 -34.2079 -34.2079 -32.1748 -32.1748 -32.0314 -32.0314
   -13.7928 -13.7928 -13.5714 -13.5714  -6.5293  -6.5293  -5.6140  -5.6140
    -4.9584  -4.9584  -3.9664  -3.9664  -3.0404  -3.0404  -2.3455  -2.3455
    -1.8053  -1.8053   0.8324   0.8324   1.2458   1.2458   2.1425   2.1425
     2.6905   2.6905

          k = 0.0417 0.0722 0.0000 ( 11537 PWs)   bands (ev):

   -56.6646 -56.6646 -34.1410 -34.1409 -32.0447 -32.0446 -32.0071 -32.0069
   -15.0588 -15.0586 -14.1404 -14.1404  -6.3350  -6.3348  -3.6726  -3.6684
    -3.4148  -3.4143  -3.1709  -3.1633  -2.6682  -2.5914  -2.3879  -2.3186
    -1.0397  -1.0394   1.1029   1.1174   1.1935   1.2066   1.3712   1.3876
     1.4391   1.4524

          k = 0.0417 0.1203 0.0000 ( 11525 PWs)   bands (ev):

   -56.6633 -56.6633 -34.1454 -34.1450 -32.0470 -32.0468 -32.0162 -32.0155
   -14.9855 -14.9849 -14.1069 -14.1068  -6.2373  -6.2367  -3.8948  -3.8897
    -3.4498  -3.4273  -3.2966  -3.2818  -2.8178  -2.7189  -2.3679  -2.2729
    -1.1119  -1.1117   1.0066   1.0184   1.0354   1.0459   1.2732   1.3000
     1.5577   1.5743

          k = 0.0417 0.1684 0.0000 ( 11519 PWs)   bands (ev):

   -56.6615 -56.6615 -34.1517 -34.1510 -32.0531 -32.0530 -32.0258 -32.0248
   -14.8796 -14.8785 -14.0583 -14.0582  -6.1004  -6.0990  -4.1878  -4.1838
    -3.6689  -3.6513  -3.2310  -3.2137  -3.0048  -2.9157  -2.3817  -2.2849
    -1.2363  -1.2344   0.8658   0.8900   0.9628   0.9864   1.1549   1.1881
     1.7411   1.7550

          k = 0.0417 0.2165 0.0000 ( 11498 PWs)   bands (ev):

   -56.6593 -56.6593 -34.1595 -34.1585 -32.0666 -32.0659 -32.0313 -32.0306
   -14.7458 -14.7440 -13.9970 -13.9968  -5.9393  -5.9368  -4.5134  -4.5120
    -3.9400  -3.9344  -3.2043  -3.1429  -3.1160  -3.0912  -2.4491  -2.3597
    -1.4111  -1.4038   0.7694   0.7949   0.9974   1.0077   1.0474   1.0980
     1.9421   1.9530

          k = 0.0417 0.2646 0.0000 ( 11485 PWs)   bands (ev):

   -56.6568 -56.6568 -34.1684 -34.1669 -32.0858 -32.0840 -32.0332 -32.0329
   -14.5907 -14.5881 -13.9262 -13.9259  -5.7845  -5.7803  -4.8313  -4.8290
    -4.2452  -4.2385  -3.3848  -3.3436  -3.0003  -2.9772  -2.5490  -2.4727
    -1.6095  -1.5933   0.7358   0.7571   0.9493   0.9695   1.1376   1.1760
     2.1360   2.1440

          k = 0.0417 0.3127 0.0000 ( 11499 PWs)   bands (ev):

   -56.6544 -56.6544 -34.1777 -34.1758 -32.1068 -32.1040 -32.0336 -32.0336
   -14.4227 -14.4192 -13.8497 -13.8494  -5.7112  -5.7052  -5.0653  -5.0589
    -4.5652  -4.5494  -3.5449  -3.5269  -2.9013  -2.8778  -2.6398  -2.5849
    -1.7884  -1.7594   0.7422   0.7502   0.9172   0.9322   1.3255   1.3569
     2.3063   2.3119

          k = 0.0417 0.3608 0.0000 ( 11506 PWs)   bands (ev):

   -56.6520 -56.6520 -34.1869 -34.1845 -32.1274 -32.1237 -32.0337 -32.0334
   -14.2522 -14.2476 -13.7727 -13.7723  -5.8236  -5.8204  -5.1145  -5.1071
    -4.8693  -4.8497  -3.6810  -3.6805  -2.8674  -2.8664  -2.6474  -2.6409
    -1.9057  -1.8608   0.7505   0.7587   0.9492   0.9533   1.5402   1.5672
     2.4432   2.4464

          k = 0.0417 0.4090 0.0000 ( 11527 PWs)   bands (ev):

   -56.6499 -56.6499 -34.1952 -34.1924 -32.1458 -32.1414 -32.0335 -32.0330
   -14.0912 -14.0857 -13.7006 -13.7002  -6.0433  -6.0421  -5.1747  -5.1468
    -5.0275  -5.0265  -3.8048  -3.7911  -2.9277  -2.9111  -2.6178  -2.5870
    -1.9395  -1.8796   0.7656   0.7782   1.0185   1.0224   1.7516   1.7750
     2.5412   2.5424

          k = 0.0417 0.4571 0.0000 ( 11536 PWs)   bands (ev):

   -56.6482 -56.6481 -34.2021 -34.1989 -32.1608 -32.1557 -32.0332 -32.0326
   -13.9533 -13.9469 -13.6394 -13.6390  -6.2568  -6.2524  -5.3873  -5.3585
    -4.9879  -4.9855  -3.8985  -3.8759  -2.9861  -2.9691  -2.5718  -2.5269
    -1.9021  -1.8329   0.7957   0.8017   1.0993   1.1132   1.9356   1.9559
     2.5994   2.5998

          k = 0.0417 0.5052 0.0000 ( 11533 PWs)   bands (ev):

   -56.6469 -56.6469 -34.2070 -34.2036 -32.1713 -32.1658 -32.0330 -32.0322
   -13.8517 -13.8446 -13.5948 -13.5943  -6.4159  -6.4094  -5.5441  -5.5151
    -4.9635  -4.9601  -3.9615  -3.9335  -3.0263  -3.0115  -2.5309  -2.4819
    -1.8335  -1.7609   0.8211   0.8266   1.1742   1.2022   2.0733   2.0916
     2.6234   2.6248

          k = 0.0417 0.5533 0.0000 ( 11539 PWs)   bands (ev):

   -56.6463 -56.6463 -34.2096 -34.2060 -32.1767 -32.1710 -32.0328 -32.0320
   -13.7976 -13.7902 -13.5712 -13.5708  -6.5003  -6.4927  -5.6254  -5.5964
    -4.9555  -4.9516  -3.9933  -3.9628  -3.0463  -3.0330  -2.5074  -2.4579
    -1.7820  -1.7088   0.8307   0.8448   1.2221   1.2603   2.1486   2.1660
     2.6280   2.6297

          k = 0.0833 0.1443 0.0000 ( 11527 PWs)   bands (ev):

   -56.6618 -56.6618 -34.1508 -34.1499 -32.0517 -32.0514 -32.0250 -32.0236
   -14.8971 -14.8956 -14.0662 -14.0661  -6.1219  -6.1202  -4.1389  -4.1327
    -3.6199  -3.5885  -3.2541  -3.2282  -3.0464  -2.9266  -2.3481  -2.2226
    -1.2133  -1.2111   0.8782   0.9149   0.9316   0.9681   1.1606   1.2060
     1.7270   1.7462

          k = 0.0833 0.1925 0.0000 ( 11520 PWs)   bands (ev):

   -56.6599 -56.6599 -34.1580 -34.1564 -32.0624 -32.0616 -32.0314 -32.0300
   -14.7788 -14.7761 -14.0119 -14.0116  -5.9747  -5.9711  -4.4289  -4.4252
    -3.8354  -3.8149  -3.2945  -3.1932  -3.1677  -3.1359  -2.3590  -2.2303
    -1.3633  -1.3541   0.7605   0.8017   0.9158   0.9555   1.0560   1.1136
     1.9301   1.9464

          k = 0.0833 0.2406 0.0000 ( 11482 PWs)   bands (ev):

   -56.6575 -56.6575 -34.1664 -34.1639 -32.0796 -32.0769 -32.0342 -32.0335
   -14.6363 -14.6321 -13.9464 -13.9461  -5.8164  -5.8098  -4.7309  -4.7291
    -4.0948  -4.0901  -3.5052  -3.4427  -3.0807  -3.0417  -2.4208  -2.3004
    -1.5445  -1.5218   0.6865   0.7172   0.9809   0.9912   0.9967   1.0802
     2.1334   2.1453

          k = 0.0833 0.2887 0.0000 ( 11486 PWs)   bands (ev):

   -56.6551 -56.6551 -34.1755 -34.1722 -32.0999 -32.0952 -32.0351 -32.0351
   -14.4769 -14.4710 -13.8734 -13.8730  -5.6957  -5.6846  -4.9963  -4.9862
    -4.4133  -4.3845  -3.6652  -3.6432  -3.0089  -2.9597  -2.5196  -2.4138
    -1.7183  -1.6764   0.6578   0.6677   0.9705   0.9883   1.1390   1.1987
     2.3142   2.3217

          k = 0.0833 0.3368 0.0000 ( 11511 PWs)   bands (ev):

   -56.6528 -56.6528 -34.1848 -34.1806 -32.1206 -32.1141 -32.0359 -32.0353
   -14.3100 -14.3021 -13.7973 -13.7967  -5.7185  -5.7082  -5.1140  -5.0991
    -4.7363  -4.6952  -3.7896  -3.7817  -2.9689  -2.9123  -2.6284  -2.5434
    -1.8394  -1.7758   0.6613   0.6726   0.9901   0.9992   1.3384   1.3885
     2.4574   2.4607

          k = 0.0833 0.3849 0.0000 ( 11525 PWs)   bands (ev):

   -56.6506 -56.6506 -34.1936 -34.1885 -32.1400 -32.1318 -32.0362 -32.0352
   -14.1465 -14.1367 -13.7232 -13.7225  -5.8976  -5.8962  -5.1111  -5.0759
    -4.9986  -4.9770  -3.8938  -3.8652  -2.9612  -2.9140  -2.7147  -2.6635
    -1.8803  -1.7987   0.7000   0.7240   1.0279   1.0331   1.5590   1.6020
     2.5522   2.5527

          k = 0.0833 0.4330 0.0000 ( 11527 PWs)   bands (ev):

   -56.6486 -56.6486 -34.2013 -34.1954 -32.1565 -32.1470 -32.0363 -32.0349
   -13.9991 -13.9874 -13.6569 -13.6562  -6.1127  -6.1065  -5.3164  -5.2579
    -4.9892  -4.9852  -3.9665  -3.9232  -2.9768  -2.9610  -2.7523  -2.7492
    -1.8483  -1.7559   0.7680   0.7876   1.0738   1.0901   1.7770   1.8141
     2.5905   2.5942

          k = 0.0833 0.4811 0.0000 ( 11534 PWs)   bands (ev):

   -56.6472 -56.6472 -34.2072 -34.2007 -32.1692 -32.1586 -32.0363 -32.0346
   -13.8810 -13.8676 -13.6042 -13.6034  -6.2924  -6.2809  -5.5089  -5.4511
    -4.9555  -4.9495  -4.0145  -3.9609  -3.0192  -3.0106  -2.7856  -2.7538
    -1.7755  -1.6779   0.8256   0.8287   1.1332   1.1775   1.9744   2.0074
     2.5770   2.5828

          k = 0.0833 0.5292 0.0000 ( 11533 PWs)   bands (ev):

   -56.6462 -56.6462 -34.2109 -34.2041 -32.1771 -32.1658 -32.0362 -32.0344
   -13.8042 -13.7898 -13.5702 -13.5695  -6.4092  -6.3945  -5.6306  -5.5731
    -4.9430  -4.9354  -4.0419  -3.9819  -3.0606  -3.0443  -2.7899  -2.7450
    -1.7037  -1.6044   0.8312   0.8553   1.1998   1.2689   2.1327   2.1646
     2.5266   2.5322

          k = 0.0833 0.5774 0.0000 ( 11538 PWs)   bands (ev):

   -56.6459 -56.6459 -34.2122 -34.2053 -32.1798 -32.1683 -32.0362 -32.0343
   -13.7775 -13.7628 -13.5585 -13.5577  -6.4496  -6.4338  -5.6721  -5.6148
    -4.9406  -4.9325  -4.0508  -3.9886  -3.0753  -3.0578  -2.7883  -2.7406
    -1.6737  -1.5740   0.8286   0.8598   1.2310   1.3089   2.2051   2.2387
     2.4895   2.4928

          k = 0.1250 0.2165 0.0000 ( 11488 PWs)   bands (ev):

   -56.6577 -56.6577 -34.1657 -34.1629 -32.0774 -32.0744 -32.0347 -32.0339
   -14.6517 -14.6470 -13.9533 -13.9529  -5.8278  -5.8205  -4.6919  -4.6908
    -4.0180  -4.0169  -3.5790  -3.5065  -3.1144  -3.0702  -2.3623  -2.2280
    -1.5202  -1.4961   0.6680   0.7024   0.9261   0.9667   1.0005   1.0668
     2.1383   2.1510

          k = 0.1250 0.2646 0.0000 ( 11469 PWs)   bands (ev):

   -56.6554 -56.6554 -34.1744 -34.1703 -32.0958 -32.0902 -32.0364 -32.0364
   -14.5047 -14.4976 -13.8856 -13.8850  -5.6923  -5.6787  -4.9445  -4.9333
    -4.2908  -4.2499  -3.7861  -3.7709  -3.0871  -3.0285  -2.4178  -2.2892
    -1.6758  -1.6297   0.6094   0.6206   0.9959   1.0059   1.0137   1.0989
     2.3305   2.3379

          k = 0.1250 0.3127 0.0000 ( 11492 PWs)   bands (ev):

   -56.6532 -56.6532 -34.1835 -34.1781 -32.1156 -32.1072 -32.0381 -32.0373
   -14.3460 -14.3361 -13.8125 -13.8117  -5.6487  -5.6307  -5.1002  -5.0781
    -4.6135  -4.5469  -3.9350  -3.9071  -3.1014  -3.0317  -2.5173  -2.4022
    -1.7889  -1.7185   0.5920   0.6053   1.0202   1.0308   1.1682   1.2357
     2.4852   2.4870

          k = 0.1250 0.3608 0.0000 ( 11510 PWs)   bands (ev):

   -56.6510 -56.6510 -34.1925 -34.1857 -32.1349 -32.1239 -32.0393 -32.0377
   -14.1854 -14.1726 -13.7389 -13.7379  -5.7661  -5.7584  -5.0987  -5.0675
    -4.9178  -4.8573  -4.0262  -3.9750  -3.1496  -3.0778  -2.6394  -2.5440
    -1.8319  -1.7421   0.6305   0.6617   1.0497   1.0563   1.3666   1.4241
     2.5857   2.5896

          k = 0.1250 0.4090 0.0000 ( 11524 PWs)   bands (ev):

   -56.6490 -56.6490 -34.2006 -34.1926 -32.1522 -32.1389 -32.0401 -32.0379
   -14.0345 -14.0188 -13.6700 -13.6689  -5.9547  -5.9499  -5.2482  -5.1576
    -4.9830  -4.9775  -4.0753  -4.0090  -3.2035  -3.1396  -2.7615  -2.6898
    -1.8063  -1.7047   0.7223   0.7560   1.0733   1.0874   1.5833   1.6320
     2.6267   2.6363

          k = 0.1250 0.4571 0.0000 ( 11554 PWs)   bands (ev):

   -56.6475 -56.6475 -34.2072 -34.1983 -32.1663 -32.1511 -32.0407 -32.0379
   -13.9057 -13.8874 -13.6115 -13.6104  -6.1349  -6.1204  -5.4708  -5.3844
    -4.9392  -4.9314  -4.0984  -4.0204  -3.2405  -3.1907  -2.8647  -2.8183
    -1.7334  -1.6257   0.8159   0.8224   1.1097   1.1585   1.7975   1.8384
     2.6096   2.6244

          k = 0.1250 0.5052 0.0000 ( 11541 PWs)   bands (ev):

   -56.6463 -56.6463 -34.2120 -34.2023 -32.1762 -32.1597 -32.0411 -32.0379
   -13.8113 -13.7910 -13.5689 -13.5678  -6.2679  -6.2468  -5.6303  -5.5461
    -4.9214  -4.9108  -4.1064  -4.0191  -3.2590  -3.2246  -2.9355  -2.9125
    -1.6455  -1.5349   0.8194   0.8433   1.1946   1.2800   1.9923   2.0266
     2.5437   2.5633

          k = 0.1250 0.5533 0.0000 ( 11545 PWs)   bands (ev):

   -56.6457 -56.6457 -34.2144 -34.2044 -32.1814 -32.1642 -32.0412 -32.0379
   -13.7612 -13.7398 -13.5463 -13.5453  -6.3381  -6.3136  -5.7128  -5.6296
    -4.9186  -4.9064  -4.1077  -4.0149  -3.2665  -3.2424  -2.9696  -2.9615
    -1.5846  -1.4728   0.7955   0.8305   1.2739   1.3745   2.1376   2.1673
     2.4607   2.4841

          k = 0.1667 0.2887 0.0000 ( 11490 PWs)   bands (ev):

   -56.6533 -56.6533 -34.1831 -34.1773 -32.1138 -32.1047 -32.0391 -32.0381
   -14.3582 -14.3476 -13.8177 -13.8168  -5.6251  -5.6038  -5.0912  -5.0661
    -4.5559  -4.4706  -4.0140  -3.9686  -3.1546  -3.0818  -2.4689  -2.3442
    -1.7706  -1.6987   0.5666   0.5806   1.0304   1.0401   1.1016   1.1770
     2.4977   2.4987

          k = 0.1667 0.3368 0.0000 ( 11509 PWs)   bands (ev):

   -56.6512 -56.6512 -34.1919 -34.1843 -32.1319 -32.1193 -32.0415 -32.0394
   -14.2055 -14.1912 -13.7468 -13.7458  -5.6857  -5.6715  -5.0996  -5.0640
    -4.8511  -4.7622  -4.1326  -4.0571  -3.2749  -3.1996  -2.5670  -2.4564
    -1.8068  -1.7141   0.5890   0.6240   1.0634   1.0704   1.2476   1.3138
     2.6111   2.6174

          k = 0.1667 0.3849 0.0000 ( 11524 PWs)   bands (ev):

   -56.6493 -56.6493 -34.2001 -34.1908 -32.1489 -32.1329 -32.0435 -32.0404
   -14.0569 -14.0387 -13.6780 -13.6768  -5.8243  -5.8231  -5.1978  -5.0754
    -4.9721  -4.9647  -4.1779  -4.0887  -3.4129  -3.3457  -2.6922  -2.6022
    -1.7835  -1.6779   0.6829   0.7255   1.0806   1.0930   1.4298   1.4863
     2.6689   2.6829

          k = 0.1667 0.4330 0.0000 ( 11550 PWs)   bands (ev):

   -56.6476 -56.6476 -34.2072 -34.1965 -32.1635 -32.1447 -32.0451 -32.0411
   -13.9237 -13.9019 -13.6164 -13.6151  -5.9779  -5.9630  -5.4368  -5.3240
    -4.9169  -4.9081  -4.1853  -4.0855  -3.5295  -3.4757  -2.8227  -2.7555
    -1.7118  -1.5991   0.7923   0.8104   1.1038   1.1506   1.6233   1.6696
     2.6734   2.6956

          k = 0.1667 0.4811 0.0000 ( 11542 PWs)   bands (ev):

   -56.6463 -56.6463 -34.2127 -34.2009 -32.1747 -32.1537 -32.0463 -32.0415
   -13.8177 -13.7929 -13.5674 -13.5661  -6.1013  -6.0752  -5.6267  -5.5191
    -4.8908  -4.8784  -4.1731  -4.0630  -3.6043  -3.5643  -2.9372  -2.8920
    -1.6123  -1.4954   0.7956   0.8113   1.2057   1.2949   1.8046   1.8407
     2.6346   2.6654

          k = 0.1667 0.5292 0.0000 ( 11546 PWs)   bands (ev):

   -56.6455 -56.6454 -34.2161 -34.2036 -32.1818 -32.1593 -32.0470 -32.0418
   -13.7491 -13.7224 -13.5359 -13.5346  -6.1803  -6.1468  -5.7460  -5.6411
    -4.8898  -4.8745  -4.1566  -4.0377  -3.6407  -3.6110  -3.0161  -2.9883
    -1.5214  -1.4018   0.7366   0.7627   1.3392   1.4457   1.9465   1.9736
     2.5766   2.6157

          k = 0.1667 0.5774 0.0000 ( 11520 PWs)   bands (ev):

   -56.6451 -56.6451 -34.2173 -34.2046 -32.1842 -32.1613 -32.0472 -32.0419
   -13.7253 -13.6980 -13.5250 -13.5237  -6.2075  -6.1713  -5.7866  -5.6826
    -4.8927  -4.8763  -4.1491  -4.0266  -3.6509  -3.6251  -3.0443  -3.0234
    -1.4838  -1.3631   0.7074   0.7353   1.3976   1.5089   2.0049   2.0276
     2.5457   2.5890

          k = 0.2083 0.3608 0.0000 ( 11512 PWs)   bands (ev):

   -56.6493 -56.6493 -34.1999 -34.1902 -32.1477 -32.1307 -32.0448 -32.0413
   -14.0645 -14.0455 -13.6807 -13.6794  -5.7733  -5.7719  -5.1796  -5.0422
    -4.9655  -4.9574  -4.2215  -4.1212  -3.4946  -3.4270  -2.6628  -2.5670
    -1.7765  -1.6697   0.6679   0.7135   1.0841   1.0958   1.3720   1.4315
     2.6864   2.7019

          k = 0.2083 0.4090 0.0000 ( 11524 PWs)   bands (ev):

   -56.6476 -56.6476 -34.2072 -34.1955 -32.1618 -32.1408 -32.0479 -32.0430
   -13.9332 -13.9096 -13.6188 -13.6174  -5.8744  -5.8607  -5.4164  -5.2857
    -4.8974  -4.8882  -4.2409  -4.1270  -3.7138  -3.6608  -2.7874  -2.7116
    -1.7034  -1.5887   0.7749   0.8000   1.1045   1.1492   1.5201   1.5696
     2.7172   2.7432

          k = 0.2083 0.4571 0.0000 ( 11534 PWs)   bands (ev):

   -56.6463 -56.6462 -34.2131 -34.1999 -32.1734 -32.1491 -32.0504 -32.0443
   -13.8221 -13.7945 -13.5664 -13.5649  -5.9553  -5.9264  -5.6229  -5.4982
    -4.8540  -4.8414  -4.2238  -4.0979  -3.8891  -3.8528  -2.9174  -2.8637
    -1.5963  -1.4761   0.7727   0.7806   1.2191   1.3078   1.6658   1.7039
     2.7144   2.7512

          k = 0.2083 0.5052 0.0000 ( 11539 PWs)   bands (ev):

   -56.6453 -56.6453 -34.2173 -34.2030 -32.1816 -32.1549 -32.0522 -32.0452
   -13.7412 -13.7107 -13.5282 -13.5267  -6.0085  -5.9662  -5.7696  -5.6492
    -4.8519  -4.8355  -4.1936  -4.0594  -3.9920  -3.9744  -3.0273  -2.9947
    -1.4801  -1.3551   0.6766   0.6924   1.3964   1.5036   1.7842   1.8122
     2.6935   2.7403

          k = 0.2083 0.5533 0.0000 ( 11532 PWs)   bands (ev):

   -56.6447 -56.6447 -34.2195 -34.2046 -32.1858 -32.1579 -32.0531 -32.0456
   -13.6986 -13.6665 -13.5080 -13.5065  -6.0343  -5.9836  -5.8453  -5.7273
    -4.8660  -4.8469  -4.1712  -4.0595  -4.0276  -4.0049  -3.0915  -3.0732
    -1.4003  -1.2715   0.5996   0.6152   1.5204   1.6342   1.8519   1.8747
     2.6747   2.7276

          k = 0.2500 0.4330 0.0000 ( 11546 PWs)   bands (ev):

   -56.6463 -56.6463 -34.2132 -34.1996 -32.1729 -32.1473 -32.0520 -32.0453
   -13.8237 -13.7952 -13.5660 -13.5644  -5.8945  -5.8651  -5.6214  -5.4901
    -4.8331  -4.8209  -4.2426  -4.1105  -4.0064  -3.9717  -2.9085  -2.8520
    -1.5916  -1.4704   0.7635   0.7684   1.2245   1.3130   1.6156   1.6545
     2.7448   2.7836

          k = 0.2500 0.4811 0.0000 ( 11546 PWs)   bands (ev):

   -56.6452 -56.6452 -34.2179 -34.2027 -32.1813 -32.1521 -32.0553 -32.0471
   -13.7374 -13.7049 -13.5241 -13.5225  -5.8858  -5.8369  -5.7815  -5.6532
    -4.8084  -4.7940  -4.2433  -4.2414  -4.1952  -4.0606  -3.0304  -2.9961
    -1.4591  -1.3311   0.6396   0.6493   1.4279   1.5359   1.6951   1.7231
     2.7626   2.8129

          k = 0.2500 0.5292 0.0000 ( 11558 PWs)   bands (ev):

   -56.6446 -56.6446 -34.2208 -34.2046 -32.1866 -32.1551 -32.0575 -32.0483
   -13.6822 -13.6471 -13.4971 -13.4955  -5.8948  -5.8493  -5.7941  -5.7570
    -4.8338  -4.8166  -4.3808  -4.3731  -4.1695  -4.0065  -3.1236  -3.1101
    -1.3412  -1.2056   0.5124   0.5176   1.6052   1.7185   1.7459   1.7707
     2.7742   2.8321

          k = 0.2500 0.5774 0.0000 ( 11550 PWs)   bands (ev):

   -56.6443 -56.6443 -34.2218 -34.2052 -32.1884 -32.1561 -32.0582 -32.0487
   -13.6631 -13.6271 -13.4878 -13.4862  -5.9258  -5.8394  -5.7930  -5.7716
    -4.8597  -4.8395  -4.4221  -4.4088  -4.1536  -3.9820  -3.1592  -3.1551
    -1.2918  -1.1523   0.4578   0.4596   1.6756   1.7635   1.7665   1.8115
     2.7785   2.8388

          k = 0.2917 0.5052 0.0000 ( 11552 PWs)   bands (ev):

   -56.6445 -56.6445 -34.2212 -34.2046 -32.1868 -32.1540 -32.0591 -32.0492
   -13.6766 -13.6405 -13.4933 -13.4917  -5.9020  -5.7735  -5.7683  -5.7019
    -4.8037  -4.7934  -4.5436  -4.5199  -4.1715  -4.0017  -3.1352  -3.1239
    -1.3193  -1.1809   0.4789   0.4798   1.6341   1.7096   1.7267   1.7555
     2.8111   2.8705

          k = 0.2917 0.5533 0.0000 ( 11552 PWs)   bands (ev):

   -56.6441 -56.6441 -34.2230 -34.2055 -32.1897 -32.1549 -32.0612 -32.0504
   -13.6448 -13.6068 -13.4771 -13.4755  -5.9620  -5.8286  -5.6743  -5.5694
    -4.9040  -4.8777  -4.6678  -4.6252  -4.1416  -3.9532  -3.2079  -3.2004
    -1.2230  -1.0746   0.3565   0.3655   1.7067   1.7262   1.7706   1.8913
     2.8419   2.9054

          k = 0.3333 0.5774 0.0000 ( 11556 PWs)   bands (ev):

   -56.6439 -56.6439 -34.2237 -34.2059 -32.1907 -32.1548 -32.0625 -32.0511
   -13.6321 -13.5931 -13.4702 -13.4686  -5.9873  -5.8533  -5.5641  -5.3965
    -5.0707  -4.9830  -4.7200  -4.6756  -4.1278  -3.9279  -3.2483  -3.2304
    -1.1739  -1.0186   0.2880   0.3046   1.6949   1.7120   1.8297   1.9537
     2.8679   2.9330

     the Fermi energy is    -1.6378 ev
     (compare with:    -1.6432 eV, computed in scf)

     Writing output data file ./outdir/nbse2.save/
 
     init_run     :      0.54s CPU      0.66s WALL (       1 calls)
     electrons    :     48.18s CPU     54.55s WALL (       1 calls)

     Called by init_run:
     wfcinit      :      0.00s CPU      0.00s WALL (       1 calls)
     potinit      :      0.19s CPU      0.21s WALL (       1 calls)
     hinit0       :      0.20s CPU      0.25s WALL (       1 calls)

     Called by electrons:
     c_bands      :     48.06s CPU     54.41s WALL (       1 calls)
     v_of_rho     :      0.00s CPU      0.01s WALL (       1 calls)
     newd         :      0.09s CPU      0.13s WALL (       1 calls)
     PAW_pot      :      0.18s CPU      0.19s WALL (       1 calls)

     Called by c_bands:
     init_us_2    :      0.05s CPU      0.06s WALL (      61 calls)
     cegterg      :     44.64s CPU     50.46s WALL (      88 calls)

     Called by *egterg:
     cdiaghg      :      2.55s CPU      2.53s WALL (    1315 calls)
     h_psi        :     30.84s CPU     36.62s WALL (    1403 calls)
     s_psi        :      1.62s CPU      1.61s WALL (    1403 calls)
     g_psi        :      0.06s CPU      0.11s WALL (    1254 calls)

     Called by h_psi:
     h_psi:calbec :      2.15s CPU      2.74s WALL (    1403 calls)
     vloc_psi     :     25.90s CPU     31.05s WALL (    1403 calls)
     add_vuspsi   :      2.13s CPU      2.21s WALL (    1403 calls)

     General routines
     calbec       :      2.14s CPU      2.72s WALL (    1403 calls)
     fft          :      0.01s CPU      0.03s WALL (      15 calls)
     fftw         :     23.32s CPU     28.17s WALL (  141832 calls)
     davcio       :      0.07s CPU      0.11s WALL (     122 calls)
 
     Parallel routines
     fft_scatt_xy :      1.59s CPU      1.80s WALL (  141847 calls)
     fft_scatt_yz :     13.53s CPU     16.98s WALL (  141847 calls)
 
     PWSCF        :     53.88s CPU   1m 1.55s WALL

 
   This run was terminated on:  20:37:29   7Sep2020            

=------------------------------------------------------------------------------=
   JOB DONE.
=------------------------------------------------------------------------------=
