
     Program BANDS v.6.6 starts on  7Sep2020 at 20:42:16 

     This program is part of the open-source Quantum ESPRESSO suite
     for quantum simulation of materials; please cite
         "P. Giannozzi et al., J. Phys.:Condens. Matter 21 395502 (2009);
         "P. Giannozzi et al., J. Phys.:Condens. Matter 29 465901 (2017);
          URL http://www.quantum-espresso.org", 
     in publications or presentations arising from this work. More details at
     http://www.quantum-espresso.org/quote

     Parallel version (MPI), running on    44 processors

     MPI processes distributed on     1 nodes
     R & G space division:  proc/nbgrp/npool/nimage =      44
     Fft bands division:     nmany     =       1

     Reading xml data from directory:

     ./outdir/nbse2.save/
     file Se.rel-pbe-n-kjpaw_psl.0.2.UPF: wavefunction(s)  4S 4P renormalized
     file Nb.rel-pbe-spn-kjpaw_psl.1.0.0.UPF: wavefunction(s)  4S 4P 4P 4D renormalized

     IMPORTANT: XC functional enforced from input :
     Exchange-correlation= PBE
                           (   1   4   3   4   0   0   0)
     Any further DFT definition will be discarded
     Please, verify this is what you really want

 
     Parallelization info
     --------------------
     sticks:   dense  smooth     PW     G-vecs:    dense   smooth      PW
     Min          15      15      4                 2085     2085     326
     Max          16      16      5                 2104     2104     347
     Sum         661     661    199                92285    92285   14831
 

     negative rho (up, down):  3.446E-03 0.000E+00
     Reading collected, re-writing distributed wavefunctions
     high-symmetry point:  0.0000 0.5774 0.0000   x coordinate   0.0000
     high-symmetry point:  0.0000 0.0000 0.0000   x coordinate   0.5774
     high-symmetry point: -0.3333 0.5774 0.0000   x coordinate   1.2440
     high-symmetry point:  0.0000 0.5774 0.0000   x coordinate   1.5774

     Plottable bands (eV) written to file nbse2.bands.dat.gnu
     Bands written to file nbse2.bands.dat

 **************************************************************************

                    xk=(   0.00000,   0.57735,   0.00000  )

     double point group C_2v (mm2) 
     there are  5 classes and  1 irreducible representations
     the character table:

       E     -E     C2    s_v   s_v'
                   -C2   -s_v  -s_v'
G_5    2.00 -2.00  0.00  0.00  0.00

     the symmetry operations in each class and the name of the first element:

     E             1
                                                                 
     -E           -1
                                                                 
      C2  -C2      2   -2
                                                                 
      s_v -s_v     3   -3
                                                                 
      s_v'-s_v'    4   -4
                                                                 

     Band symmetry, C_2v (mm2)  double point group:

     e(  1 -  2) =    -56.64627  eV     2   --> G_5  D_5       
     e(  3 -  4) =    -34.20790  eV     2   --> G_5  D_5       
     e(  5 -  6) =    -32.17476  eV     2   --> G_5  D_5       
     e(  7 -  8) =    -32.03138  eV     2   --> G_5  D_5       
     e(  9 - 10) =    -13.79279  eV     2   --> G_5  D_5       
     e( 11 - 12) =    -13.57139  eV     2   --> G_5  D_5       
     e( 13 - 14) =     -6.52927  eV     2   --> G_5  D_5       
     e( 15 - 16) =     -5.61404  eV     2   --> G_5  D_5       
     e( 17 - 18) =     -4.95844  eV     2   --> G_5  D_5       
     e( 19 - 20) =     -3.96644  eV     2   --> G_5  D_5       
     e( 21 - 22) =     -3.04038  eV     2   --> G_5  D_5       
     e( 23 - 24) =     -2.34546  eV     2   --> G_5  D_5       
     e( 25 - 26) =     -1.80533  eV     2   --> G_5  D_5       
     e( 27 - 28) =      0.83235  eV     2   --> G_5  D_5       
     e( 29 - 30) =      1.24576  eV     2   --> G_5  D_5       
     e( 31 - 32) =      2.14246  eV     2   --> G_5  D_5       
     e( 33 - 34) =      2.69045  eV     2   --> G_5  D_5       
     e( 35 - 36) =      3.96776  eV     2   --> G_5  D_5       
     e( 37 - 38) =      5.59969  eV     2   --> G_5  D_5       
     e( 39 - 40) =      5.83937  eV     2   --> G_5  D_5       
     e( 41 - 42) =      6.54954  eV     2   --> G_5  D_5       

 **************************************************************************

 **************************************************************************

                    xk=(   0.00000,   0.56773,   0.00000  )

     Band symmetry, C_2v (mm2)  double point group:

     e(  1 -  2) =    -56.64627  eV     2   --> G_5  D_5       
     e(  3 -  4) =    -34.20784  eV     2   --> G_5  D_5       
     e(  5 -  6) =    -32.17464  eV     2   --> G_5  D_5       
     e(  7 -  8) =    -32.03138  eV     2   --> G_5  D_5       
     e(  9 - 10) =    -13.79392  eV     2   --> G_5  D_5       
     e( 11 - 12) =    -13.57189  eV     2   --> G_5  D_5       
     e( 13 - 14) =     -6.52752  eV     2   --> G_5  D_5       
     e( 15 - 16) =     -5.61240  eV     2   --> G_5  D_5       
     e( 17 - 18) =     -4.95857  eV     2   --> G_5  D_5       
     e( 19 - 20) =     -3.96571  eV     2   --> G_5  D_5       
     e( 21 - 22) =     -3.04008  eV     2   --> G_5  D_5       
     e( 23 - 24) =     -2.34605  eV     2   --> G_5  D_5       
     e( 25 - 26) =     -1.80651  eV     2   --> G_5  D_5       
     e( 27 - 28) =      0.83202  eV     2   --> G_5  D_5       
     e( 29 - 30) =      1.24466  eV     2   --> G_5  D_5       
     e( 31 - 32) =      2.14129  eV     2   --> G_5  D_5       
     e( 33 - 34) =      2.68994  eV     2   --> G_5  D_5       
     e( 35 - 36) =      3.97236  eV     2   --> G_5  D_5       
     e( 37 - 38) =      5.59676  eV     2   --> G_5  D_5       
     e( 39 - 40) =      5.83819  eV     2   --> G_5  D_5       
     e( 41 - 42) =      6.54309  eV     2   --> G_5  D_5       

 **************************************************************************

 **************************************************************************

                    xk=(   0.00000,   0.55811,   0.00000  )

     Band symmetry, C_2v (mm2)  double point group:

     e(  1 -  2) =    -56.64630  eV     2   --> G_5  D_5       
     e(  3 -  4) =    -34.20769  eV     2   --> G_5  D_5       
     e(  5 -  6) =    -32.17431  eV     2   --> G_5  D_5       
     e(  7 -  8) =    -32.03139  eV     2   --> G_5  D_5       
     e(  9 - 10) =    -13.79729  eV     2   --> G_5  D_5       
     e( 11 - 12) =    -13.57335  eV     2   --> G_5  D_5       
     e( 13 - 14) =     -6.52228  eV     2   --> G_5  D_5       
     e( 15 - 16) =     -5.60749  eV     2   --> G_5  D_5       
     e( 17 - 18) =     -4.95898  eV     2   --> G_5  D_5       
     e( 19 - 20) =     -3.96351  eV     2   --> G_5  D_5       
     e( 21 - 22) =     -3.03914  eV     2   --> G_5  D_5       
     e( 23 - 24) =     -2.34783  eV     2   --> G_5  D_5       
     e( 25 - 26) =     -1.81000  eV     2   --> G_5  D_5       
     e( 27 - 28) =      0.83102  eV     2   --> G_5  D_5       
     e( 29 - 30) =      1.24133  eV     2   --> G_5  D_5       
     e( 31 - 32) =      2.13780  eV     2   --> G_5  D_5       
     e( 33 - 34) =      2.68841  eV     2   --> G_5  D_5       
     e( 35 - 36) =      3.98614  eV     2   --> G_5  D_5       
     e( 37 - 38) =      5.58804  eV     2   --> G_5  D_5       
     e( 39 - 40) =      5.83466  eV     2   --> G_5  D_5       
     e( 41 - 41) =      6.52434  eV     1   -->   ?
     e( 42 - 42) =      6.52444  eV     1   -->   ?

 **************************************************************************

 **************************************************************************

                    xk=(   0.00000,   0.54848,   0.00000  )

     Band symmetry, C_2v (mm2)  double point group:

     e(  1 -  2) =    -56.64637  eV     2   --> G_5  D_5       
     e(  3 -  4) =    -34.20743  eV     2   --> G_5  D_5       
     e(  5 -  6) =    -32.17377  eV     2   --> G_5  D_5       
     e(  7 -  8) =    -32.03142  eV     2   --> G_5  D_5       
     e(  9 - 10) =    -13.80289  eV     2   --> G_5  D_5       
     e( 11 - 12) =    -13.57577  eV     2   --> G_5  D_5       
     e( 13 - 14) =     -6.51358  eV     2   --> G_5  D_5       
     e( 15 - 16) =     -5.59931  eV     2   --> G_5  D_5       
     e( 17 - 18) =     -4.95970  eV     2   --> G_5  D_5       
     e( 19 - 20) =     -3.95984  eV     2   --> G_5  D_5       
     e( 21 - 22) =     -3.03758  eV     2   --> G_5  D_5       
     e( 23 - 24) =     -2.35078  eV     2   --> G_5  D_5       
     e( 25 - 26) =     -1.81570  eV     2   --> G_5  D_5       
     e( 27 - 28) =      0.82938  eV     2   --> G_5  D_5       
     e( 29 - 30) =      1.23586  eV     2   --> G_5  D_5       
     e( 31 - 32) =      2.13197  eV     2   --> G_5  D_5       
     e( 33 - 34) =      2.68587  eV     2   --> G_5  D_5       
     e( 35 - 36) =      4.00890  eV     2   --> G_5  D_5       
     e( 37 - 38) =      5.57371  eV     2   --> G_5  D_5       
     e( 39 - 40) =      5.82867  eV     2   --> G_5  D_5       
     e( 41 - 41) =      6.49478  eV     1   -->   ?
     e( 42 - 42) =      6.49491  eV     1   -->   ?

 **************************************************************************

 **************************************************************************

                    xk=(   0.00000,   0.53886,   0.00000  )

     Band symmetry, C_2v (mm2)  double point group:

     e(  1 -  2) =    -56.64643  eV     2   --> G_5  D_5       
     e(  3 -  4) =    -34.20707  eV     2   --> G_5  D_5       
     e(  5 -  6) =    -32.17300  eV     2   --> G_5  D_5       
     e(  7 -  8) =    -32.03145  eV     2   --> G_5  D_5       
     e(  9 - 10) =    -13.81067  eV     2   --> G_5  D_5       
     e( 11 - 12) =    -13.57914  eV     2   --> G_5  D_5       
     e( 13 - 14) =     -6.50144  eV     2   --> G_5  D_5       
     e( 15 - 16) =     -5.58789  eV     2   --> G_5  D_5       
     e( 17 - 18) =     -4.96075  eV     2   --> G_5  D_5       
     e( 19 - 20) =     -3.95471  eV     2   --> G_5  D_5       
     e( 21 - 22) =     -3.03539  eV     2   --> G_5  D_5       
     e( 23 - 24) =     -2.35491  eV     2   --> G_5  D_5       
     e( 25 - 26) =     -1.82344  eV     2   --> G_5  D_5       
     e( 27 - 28) =      0.82715  eV     2   --> G_5  D_5       
     e( 29 - 30) =      1.22834  eV     2   --> G_5  D_5       
     e( 31 - 32) =      2.12381  eV     2   --> G_5  D_5       
     e( 33 - 34) =      2.68231  eV     2   --> G_5  D_5       
     e( 35 - 36) =      4.04037  eV     2   --> G_5  D_5       
     e( 37 - 38) =      5.55409  eV     2   --> G_5  D_5       
     e( 39 - 40) =      5.82000  eV     2   --> G_5  D_5       
     e( 41 - 41) =      6.45657  eV     1   -->   ?
     e( 42 - 42) =      6.45671  eV     1   -->   ?

 **************************************************************************

 **************************************************************************

                    xk=(   0.00000,   0.52924,   0.00000  )

     Band symmetry, C_2v (mm2)  double point group:

     e(  1 -  2) =    -56.64657  eV     2   --> G_5  D_5       
     e(  3 -  4) =    -34.20662  eV     2   --> G_5  D_5       
     e(  5 -  6) =    -32.17203  eV     2   --> G_5  D_5       
     e(  7 -  8) =    -32.03148  eV     2   --> G_5  D_5       
     e(  9 - 10) =    -13.82061  eV     2   --> G_5  D_5       
     e( 11 - 12) =    -13.58344  eV     2   --> G_5  D_5       
     e( 13 - 14) =     -6.48595  eV     2   --> G_5  D_5       
     e( 15 - 16) =     -5.57326  eV     2   --> G_5  D_5       
     e( 17 - 18) =     -4.96221  eV     2   --> G_5  D_5       
     e( 19 - 20) =     -3.94813  eV     2   --> G_5  D_5       
     e( 21 - 22) =     -3.03256  eV     2   --> G_5  D_5       
     e( 23 - 24) =     -2.36023  eV     2   --> G_5  D_5       
     e( 25 - 26) =     -1.83298  eV     2   --> G_5  D_5       
     e( 27 - 28) =      0.82439  eV     2   --> G_5  D_5       
     e( 29 - 30) =      1.21887  eV     2   --> G_5  D_5       
     e( 31 - 32) =      2.11330  eV     2   --> G_5  D_5       
     e( 33 - 34) =      2.67772  eV     2   --> G_5  D_5       
     e( 35 - 36) =      4.08016  eV     2   --> G_5  D_5       
     e( 37 - 38) =      5.52954  eV     2   --> G_5  D_5       
     e( 39 - 40) =      5.80829  eV     2   --> G_5  D_5       
     e( 41 - 41) =      6.41220  eV     1   -->   ?
     e( 42 - 42) =      6.41233  eV     1   -->   ?

 **************************************************************************

 **************************************************************************

                    xk=(   0.00000,   0.51962,   0.00000  )

     Band symmetry, C_2v (mm2)  double point group:

     e(  1 -  2) =    -56.64673  eV     2   --> G_5  D_5       
     e(  3 -  4) =    -34.20607  eV     2   --> G_5  D_5       
     e(  5 -  6) =    -32.17085  eV     2   --> G_5  D_5       
     e(  7 -  8) =    -32.03153  eV     2   --> G_5  D_5       
     e(  9 - 10) =    -13.83265  eV     2   --> G_5  D_5       
     e( 11 - 12) =    -13.58866  eV     2   --> G_5  D_5       
     e( 13 - 14) =     -6.46714  eV     2   --> G_5  D_5       
     e( 15 - 16) =     -5.55547  eV     2   --> G_5  D_5       
     e( 17 - 18) =     -4.96413  eV     2   --> G_5  D_5       
     e( 19 - 20) =     -3.94010  eV     2   --> G_5  D_5       
     e( 21 - 22) =     -3.02908  eV     2   --> G_5  D_5       
     e( 23 - 24) =     -2.36673  eV     2   --> G_5  D_5       
     e( 25 - 26) =     -1.84403  eV     2   --> G_5  D_5       
     e( 27 - 28) =      0.82119  eV     2   --> G_5  D_5       
     e( 29 - 30) =      1.20761  eV     2   --> G_5  D_5       
     e( 31 - 32) =      2.10044  eV     2   --> G_5  D_5       
     e( 33 - 34) =      2.67209  eV     2   --> G_5  D_5       
     e( 35 - 36) =      4.12778  eV     2   --> G_5  D_5       
     e( 37 - 38) =      5.50054  eV     2   --> G_5  D_5       
     e( 39 - 40) =      5.79291  eV     2   --> G_5  D_5       
     e( 41 - 42) =      6.36432  eV     2   --> G_5  D_5       

 **************************************************************************

 **************************************************************************

                    xk=(   0.00000,   0.50999,   0.00000  )

     Band symmetry, C_2v (mm2)  double point group:

     e(  1 -  2) =    -56.64692  eV     2   --> G_5  D_5       
     e(  3 -  4) =    -34.20542  eV     2   --> G_5  D_5       
     e(  5 -  6) =    -32.16946  eV     2   --> G_5  D_5       
     e(  7 -  8) =    -32.03159  eV     2   --> G_5  D_5       
     e(  9 -  9) =    -13.84674  eV     1   -->   ?
     e( 10 - 10) =    -13.84662  eV     1   -->   ?
     e( 11 - 11) =    -13.59478  eV     1   -->   ?
     e( 12 - 12) =    -13.59467  eV     1   -->   ?
     e( 13 - 14) =     -6.44511  eV     2   --> G_5  D_5       
     e( 15 - 16) =     -5.53457  eV     2   --> G_5  D_5       
     e( 17 - 18) =     -4.96660  eV     2   --> G_5  D_5       
     e( 19 - 20) =     -3.93063  eV     2   --> G_5  D_5       
     e( 21 - 22) =     -3.02495  eV     2   --> G_5  D_5       
     e( 23 - 24) =     -2.37440  eV     2   --> G_5  D_5       
     e( 25 - 26) =     -1.85624  eV     2   --> G_5  D_5       
     e( 27 - 28) =      0.81764  eV     2   --> G_5  D_5       
     e( 29 - 30) =      1.19472  eV     2   --> G_5  D_5       
     e( 31 - 32) =      2.08525  eV     2   --> G_5  D_5       
     e( 33 - 34) =      2.66541  eV     2   --> G_5  D_5       
     e( 35 - 36) =      4.18265  eV     2   --> G_5  D_5       
     e( 37 - 38) =      5.46760  eV     2   --> G_5  D_5       
     e( 39 - 40) =      5.77299  eV     2   --> G_5  D_5       
     e( 41 - 42) =      6.31558  eV     2   --> G_5  D_5       

 **************************************************************************

 **************************************************************************

                    xk=(   0.00000,   0.50037,   0.00000  )

     Band symmetry, C_2v (mm2)  double point group:

     e(  1 -  2) =    -56.64713  eV     2   --> G_5  D_5       
     e(  3 -  4) =    -34.20468  eV     2   --> G_5  D_5       
     e(  5 -  6) =    -32.16786  eV     2   --> G_5  D_5       
     e(  7 -  8) =    -32.03165  eV     2   --> G_5  D_5       
     e(  9 -  9) =    -13.86280  eV     1   -->   ?
     e( 10 - 10) =    -13.86267  eV     1   -->   ?
     e( 11 - 11) =    -13.60176  eV     1   -->   ?
     e( 12 - 12) =    -13.60164  eV     1   -->   ?
     e( 13 - 14) =     -6.41998  eV     2   --> G_5  D_5       
     e( 15 - 15) =     -5.51062  eV     1   -->   ?
     e( 16 - 16) =     -5.51052  eV     1   -->   ?
     e( 17 - 18) =     -4.96969  eV     2   --> G_5  D_5       
     e( 19 - 20) =     -3.91972  eV     2   --> G_5  D_5       
     e( 21 - 22) =     -3.02015  eV     2   --> G_5  D_5       
     e( 23 - 24) =     -2.38324  eV     2   --> G_5  D_5       
     e( 25 - 26) =     -1.86925  eV     2   --> G_5  D_5       
     e( 27 - 28) =      0.81386  eV     2   --> G_5  D_5       
     e( 29 - 30) =      1.18038  eV     2   --> G_5  D_5       
     e( 31 - 32) =      2.06770  eV     2   --> G_5  D_5       
     e( 33 - 34) =      2.65768  eV     2   --> G_5  D_5       
     e( 35 - 36) =      4.24406  eV     2   --> G_5  D_5       
     e( 37 - 38) =      5.43131  eV     2   --> G_5  D_5       
     e( 39 - 40) =      5.74742  eV     2   --> G_5  D_5       
     e( 41 - 42) =      6.26829  eV     2   --> G_5  D_5       

 **************************************************************************

 **************************************************************************

                    xk=(   0.00000,   0.49075,   0.00000  )

     Band symmetry, C_2v (mm2)  double point group:

     e(  1 -  2) =    -56.64735  eV     2   --> G_5  D_5       
     e(  3 -  4) =    -34.20384  eV     2   --> G_5  D_5       
     e(  5 -  6) =    -32.16606  eV     2   --> G_5  D_5       
     e(  7 -  8) =    -32.03172  eV     2   --> G_5  D_5       
     e(  9 -  9) =    -13.88075  eV     1   -->   ?
     e( 10 - 10) =    -13.88062  eV     1   -->   ?
     e( 11 - 11) =    -13.60958  eV     1   -->   ?
     e( 12 - 12) =    -13.60945  eV     1   -->   ?
     e( 13 - 14) =     -6.39184  eV     2   --> G_5  D_5       
     e( 15 - 15) =     -5.48370  eV     1   -->   ?
     e( 16 - 16) =     -5.48358  eV     1   -->   ?
     e( 17 - 18) =     -4.97351  eV     2   --> G_5  D_5       
     e( 19 - 20) =     -3.90739  eV     2   --> G_5  D_5       
     e( 21 - 22) =     -3.01467  eV     2   --> G_5  D_5       
     e( 23 - 24) =     -2.39324  eV     2   --> G_5  D_5       
     e( 25 - 26) =     -1.88265  eV     2   --> G_5  D_5       
     e( 27 - 28) =      0.80995  eV     2   --> G_5  D_5       
     e( 29 - 30) =      1.16476  eV     2   --> G_5  D_5       
     e( 31 - 32) =      2.04784  eV     2   --> G_5  D_5       
     e( 33 - 34) =      2.64887  eV     2   --> G_5  D_5       
     e( 35 - 36) =      4.31120  eV     2   --> G_5  D_5       
     e( 37 - 38) =      5.39230  eV     2   --> G_5  D_5       
     e( 39 - 40) =      5.71504  eV     2   --> G_5  D_5       
     e( 41 - 42) =      6.18903  eV     2   --> G_5  D_5       

 **************************************************************************

 **************************************************************************

                    xk=(   0.00000,   0.48113,   0.00000  )

     Band symmetry, C_2v (mm2)  double point group:

     e(  1 -  2) =    -56.64761  eV     2   --> G_5  D_5       
     e(  3 -  4) =    -34.20292  eV     2   --> G_5  D_5       
     e(  5 -  6) =    -32.16407  eV     2   --> G_5  D_5       
     e(  7 -  8) =    -32.03179  eV     2   --> G_5  D_5       
     e(  9 -  9) =    -13.90053  eV     1   -->   ?
     e( 10 - 10) =    -13.90039  eV     1   -->   ?
     e( 11 - 11) =    -13.61820  eV     1   -->   ?
     e( 12 - 12) =    -13.61807  eV     1   -->   ?
     e( 13 - 14) =     -6.36083  eV     2   --> G_5  D_5       
     e( 15 - 15) =     -5.45390  eV     1   -->   ?
     e( 16 - 16) =     -5.45376  eV     1   -->   ?
     e( 17 - 18) =     -4.97811  eV     2   --> G_5  D_5       
     e( 19 - 20) =     -3.89366  eV     2   --> G_5  D_5       
     e( 21 - 22) =     -3.00850  eV     2   --> G_5  D_5       
     e( 23 - 24) =     -2.40438  eV     2   --> G_5  D_5       
     e( 25 - 26) =     -1.89602  eV     2   --> G_5  D_5       
     e( 27 - 28) =      0.80605  eV     2   --> G_5  D_5       
     e( 29 - 30) =      1.14800  eV     2   --> G_5  D_5       
     e( 31 - 32) =      2.02569  eV     2   --> G_5  D_5       
     e( 33 - 34) =      2.63898  eV     2   --> G_5  D_5       
     e( 35 - 36) =      4.38304  eV     2   --> G_5  D_5       
     e( 37 - 38) =      5.35134  eV     2   --> G_5  D_5       
     e( 39 - 39) =      5.67494  eV     1   -->   ?
     e( 40 - 40) =      5.67504  eV     1   -->   ?
     e( 41 - 42) =      6.08488  eV     2   --> G_5  D_5       

 **************************************************************************

 **************************************************************************

                    xk=(   0.00000,   0.47150,   0.00000  )

     Band symmetry, C_2v (mm2)  double point group:

     e(  1 -  2) =    -56.64787  eV     2   --> G_5  D_5       
     e(  3 -  4) =    -34.20190  eV     2   --> G_5  D_5       
     e(  5 -  6) =    -32.16188  eV     2   --> G_5  D_5       
     e(  7 -  8) =    -32.03186  eV     2   --> G_5  D_5       
     e(  9 -  9) =    -13.92202  eV     1   -->   ?
     e( 10 - 10) =    -13.92188  eV     1   -->   ?
     e( 11 - 11) =    -13.62759  eV     1   -->   ?
     e( 12 - 12) =    -13.62745  eV     1   -->   ?
     e( 13 - 14) =     -6.32711  eV     2   --> G_5  D_5       
     e( 15 - 15) =     -5.42132  eV     1   -->   ?
     e( 16 - 16) =     -5.42116  eV     1   -->   ?
     e( 17 - 18) =     -4.98358  eV     2   --> G_5  D_5       
     e( 19 - 20) =     -3.87853  eV     2   --> G_5  D_5       
     e( 21 - 22) =     -3.00163  eV     2   --> G_5  D_5       
     e( 23 - 24) =     -2.41665  eV     2   --> G_5  D_5       
     e( 25 - 26) =     -1.90892  eV     2   --> G_5  D_5       
     e( 27 - 28) =      0.80229  eV     2   --> G_5  D_5       
     e( 29 - 30) =      1.13029  eV     2   --> G_5  D_5       
     e( 31 - 32) =      2.00129  eV     2   --> G_5  D_5       
     e( 33 - 34) =      2.62798  eV     2   --> G_5  D_5       
     e( 35 - 36) =      4.45827  eV     2   --> G_5  D_5       
     e( 37 - 38) =      5.30941  eV     2   --> G_5  D_5       
     e( 39 - 39) =      5.62682  eV     1   -->   ?
     e( 40 - 40) =      5.62693  eV     1   -->   ?
     e( 41 - 42) =      5.98296  eV     2   --> G_5  D_5       

 **************************************************************************

 **************************************************************************

                    xk=(   0.00000,   0.46188,   0.00000  )

     Band symmetry, C_2v (mm2)  double point group:

     e(  1 -  2) =    -56.64813  eV     2   --> G_5  D_5       
     e(  3 -  4) =    -34.20080  eV     2   --> G_5  D_5       
     e(  5 -  6) =    -32.15950  eV     2   --> G_5  D_5       
     e(  7 -  8) =    -32.03194  eV     2   --> G_5  D_5       
     e(  9 -  9) =    -13.94514  eV     1   -->   ?
     e( 10 - 10) =    -13.94499  eV     1   -->   ?
     e( 11 - 11) =    -13.63772  eV     1   -->   ?
     e( 12 - 12) =    -13.63757  eV     1   -->   ?
     e( 13 - 14) =     -6.29085  eV     2   --> G_5  D_5       
     e( 15 - 15) =     -5.38608  eV     1   -->   ?
     e( 16 - 16) =     -5.38590  eV     1   -->   ?
     e( 17 - 18) =     -4.98995  eV     2   --> G_5  D_5       
     e( 19 - 20) =     -3.86202  eV     2   --> G_5  D_5       
     e( 21 - 22) =     -2.99407  eV     2   --> G_5  D_5       
     e( 23 - 24) =     -2.43001  eV     2   --> G_5  D_5       
     e( 25 - 26) =     -1.92093  eV     2   --> G_5  D_5       
     e( 27 - 28) =      0.79879  eV     2   --> G_5  D_5       
     e( 29 - 30) =      1.11177  eV     2   --> G_5  D_5       
     e( 31 - 32) =      1.97470  eV     2   --> G_5  D_5       
     e( 33 - 34) =      2.61586  eV     2   --> G_5  D_5       
     e( 35 - 36) =      4.53505  eV     2   --> G_5  D_5       
     e( 37 - 38) =      5.26794  eV     2   --> G_5  D_5       
     e( 39 - 39) =      5.57116  eV     1   -->   ?
     e( 40 - 40) =      5.57126  eV     1   -->   ?
     e( 41 - 42) =      5.88369  eV     2   --> G_5  D_5       

 **************************************************************************

 **************************************************************************

                    xk=(   0.00000,   0.45226,   0.00000  )

     Band symmetry, C_2v (mm2)  double point group:

     e(  1 -  2) =    -56.64843  eV     2   --> G_5  D_5       
     e(  3 -  4) =    -34.19962  eV     2   --> G_5  D_5       
     e(  5 -  6) =    -32.15695  eV     2   --> G_5  D_5       
     e(  7 -  8) =    -32.03202  eV     2   --> G_5  D_5       
     e(  9 -  9) =    -13.96979  eV     1   -->   ?
     e( 10 - 10) =    -13.96963  eV     1   -->   ?
     e( 11 - 11) =    -13.64853  eV     1   -->   ?
     e( 12 - 12) =    -13.64838  eV     1   -->   ?
     e( 13 - 14) =     -6.25223  eV     2   --> G_5  D_5       
     e( 15 - 15) =     -5.34835  eV     1   -->   ?
     e( 16 - 16) =     -5.34813  eV     1   -->   ?
     e( 17 - 18) =     -4.99722  eV     2   --> G_5  D_5       
     e( 19 - 20) =     -3.84415  eV     2   --> G_5  D_5       
     e( 21 - 22) =     -2.98580  eV     2   --> G_5  D_5       
     e( 23 - 24) =     -2.44442  eV     2   --> G_5  D_5       
     e( 25 - 26) =     -1.93163  eV     2   --> G_5  D_5       
     e( 27 - 28) =      0.79571  eV     2   --> G_5  D_5       
     e( 29 - 30) =      1.09259  eV     2   --> G_5  D_5       
     e( 31 - 32) =      1.94597  eV     2   --> G_5  D_5       
     e( 33 - 34) =      2.60259  eV     2   --> G_5  D_5       
     e( 35 - 36) =      4.61054  eV     2   --> G_5  D_5       
     e( 37 - 38) =      5.22926  eV     2   --> G_5  D_5       
     e( 39 - 40) =      5.50903  eV     2   --> G_5  D_5       
     e( 41 - 42) =      5.78733  eV     2   --> G_5  D_5       

 **************************************************************************

 **************************************************************************

                    xk=(   0.00000,   0.44264,   0.00000  )

     Band symmetry, C_2v (mm2)  double point group:

     e(  1 -  2) =    -56.64877  eV     2   --> G_5  D_5       
     e(  3 -  4) =    -34.19837  eV     2   --> G_5  D_5       
     e(  5 -  6) =    -32.15422  eV     2   --> G_5  D_5       
     e(  7 -  8) =    -32.03211  eV     2   --> G_5  D_5       
     e(  9 -  9) =    -13.99585  eV     1   -->   ?
     e( 10 - 10) =    -13.99570  eV     1   -->   ?
     e( 11 - 11) =    -13.65999  eV     1   -->   ?
     e( 12 - 12) =    -13.65984  eV     1   -->   ?
     e( 13 - 13) =     -6.21149  eV     1   -->   ?
     e( 14 - 14) =     -6.21138  eV     1   -->   ?
     e( 15 - 15) =     -5.30832  eV     1   -->   ?
     e( 16 - 16) =     -5.30806  eV     1   -->   ?
     e( 17 - 18) =     -5.00531  eV     2   --> G_5  D_5       
     e( 19 - 20) =     -3.82494  eV     2   --> G_5  D_5       
     e( 21 - 22) =     -2.97684  eV     2   --> G_5  D_5       
     e( 23 - 24) =     -2.45984  eV     2   --> G_5  D_5       
     e( 25 - 26) =     -1.94062  eV     2   --> G_5  D_5       
     e( 27 - 28) =      0.79315  eV     2   --> G_5  D_5       
     e( 29 - 30) =      1.07289  eV     2   --> G_5  D_5       
     e( 31 - 32) =      1.91521  eV     2   --> G_5  D_5       
     e( 33 - 34) =      2.58815  eV     2   --> G_5  D_5       
     e( 35 - 36) =      4.68000  eV     2   --> G_5  D_5       
     e( 37 - 38) =      5.19745  eV     2   --> G_5  D_5       
     e( 39 - 40) =      5.44177  eV     2   --> G_5  D_5       
     e( 41 - 42) =      5.69414  eV     2   --> G_5  D_5       

 **************************************************************************

 **************************************************************************

                    xk=(   0.00000,   0.43301,   0.00000  )

     Band symmetry, C_2v (mm2)  double point group:

     e(  1 -  2) =    -56.64908  eV     2   --> G_5  D_5       
     e(  3 -  4) =    -34.19704  eV     2   --> G_5  D_5       
     e(  5 -  6) =    -32.15132  eV     2   --> G_5  D_5       
     e(  7 -  8) =    -32.03220  eV     2   --> G_5  D_5       
     e(  9 -  9) =    -14.02323  eV     1   -->   ?
     e( 10 - 10) =    -14.02308  eV     1   -->   ?
     e( 11 - 11) =    -13.67206  eV     1   -->   ?
     e( 12 - 12) =    -13.67191  eV     1   -->   ?
     e( 13 - 13) =     -6.16887  eV     1   -->   ?
     e( 14 - 14) =     -6.16875  eV     1   -->   ?
     e( 15 - 15) =     -5.26631  eV     1   -->   ?
     e( 16 - 16) =     -5.26600  eV     1   -->   ?
     e( 17 - 17) =     -5.01400  eV     1   -->   ?
     e( 18 - 18) =     -5.01387  eV     1   -->   ?
     e( 19 - 20) =     -3.80441  eV     2   --> G_5  D_5       
     e( 21 - 22) =     -2.96721  eV     2   --> G_5  D_5       
     e( 23 - 24) =     -2.47621  eV     2   --> G_5  D_5       
     e( 25 - 26) =     -1.94753  eV     2   --> G_5  D_5       
     e( 27 - 28) =      0.79126  eV     2   --> G_5  D_5       
     e( 29 - 30) =      1.05282  eV     2   --> G_5  D_5       
     e( 31 - 32) =      1.88253  eV     2   --> G_5  D_5       
     e( 33 - 34) =      2.57253  eV     2   --> G_5  D_5       
     e( 35 - 36) =      4.73552  eV     2   --> G_5  D_5       
     e( 37 - 38) =      5.17947  eV     2   --> G_5  D_5       
     e( 39 - 40) =      5.37070  eV     2   --> G_5  D_5       
     e( 41 - 42) =      5.60456  eV     2   --> G_5  D_5       

 **************************************************************************

 **************************************************************************

                    xk=(   0.00000,   0.42339,   0.00000  )

     Band symmetry, C_2v (mm2)  double point group:

     e(  1 -  2) =    -56.64941  eV     2   --> G_5  D_5       
     e(  3 -  4) =    -34.19564  eV     2   --> G_5  D_5       
     e(  5 -  6) =    -32.14826  eV     2   --> G_5  D_5       
     e(  7 -  8) =    -32.03228  eV     2   --> G_5  D_5       
     e(  9 -  9) =    -14.05182  eV     1   -->   ?
     e( 10 - 10) =    -14.05166  eV     1   -->   ?
     e( 11 - 11) =    -13.68468  eV     1   -->   ?
     e( 12 - 12) =    -13.68453  eV     1   -->   ?
     e( 13 - 13) =     -6.12467  eV     1   -->   ?
     e( 14 - 14) =     -6.12454  eV     1   -->   ?
     e( 15 - 15) =     -5.22287  eV     1   -->   ?
     e( 16 - 16) =     -5.22248  eV     1   -->   ?
     e( 17 - 17) =     -5.02279  eV     1   -->   ?
     e( 18 - 18) =     -5.02261  eV     1   -->   ?
     e( 19 - 20) =     -3.78258  eV     2   --> G_5  D_5       
     e( 21 - 22) =     -2.95692  eV     2   --> G_5  D_5       
     e( 23 - 24) =     -2.49343  eV     2   --> G_5  D_5       
     e( 25 - 26) =     -1.95202  eV     2   --> G_5  D_5       
     e( 27 - 28) =      0.79016  eV     2   --> G_5  D_5       
     e( 29 - 30) =      1.03250  eV     2   --> G_5  D_5       
     e( 31 - 32) =      1.84803  eV     2   --> G_5  D_5       
     e( 33 - 34) =      2.55571  eV     2   --> G_5  D_5       
     e( 35 - 36) =      4.76675  eV     2   --> G_5  D_5       
     e( 37 - 38) =      5.18407  eV     2   --> G_5  D_5       
     e( 39 - 40) =      5.29695  eV     2   --> G_5  D_5       
     e( 41 - 42) =      5.51961  eV     2   --> G_5  D_5       

 **************************************************************************

 **************************************************************************

                    xk=(   0.00000,   0.41377,   0.00000  )

     Band symmetry, C_2v (mm2)  double point group:

     e(  1 -  2) =    -56.64979  eV     2   --> G_5  D_5       
     e(  3 -  4) =    -34.19418  eV     2   --> G_5  D_5       
     e(  5 -  6) =    -32.14506  eV     2   --> G_5  D_5       
     e(  7 -  8) =    -32.03237  eV     2   --> G_5  D_5       
     e(  9 -  9) =    -14.08149  eV     1   -->   ?
     e( 10 - 10) =    -14.08133  eV     1   -->   ?
     e( 11 - 11) =    -13.69782  eV     1   -->   ?
     e( 12 - 12) =    -13.69767  eV     1   -->   ?
     e( 13 - 13) =     -6.07925  eV     1   -->   ?
     e( 14 - 14) =     -6.07911  eV     1   -->   ?
     e( 15 - 15) =     -5.17922  eV     1   -->   ?
     e( 16 - 16) =     -5.17871  eV     1   -->   ?
     e( 17 - 17) =     -5.03045  eV     1   -->   ?
     e( 18 - 18) =     -5.03016  eV     1   -->   ?
     e( 19 - 20) =     -3.75948  eV     2   --> G_5  D_5       
     e( 21 - 22) =     -2.94605  eV     2   --> G_5  D_5       
     e( 23 - 24) =     -2.51141  eV     2   --> G_5  D_5       
     e( 25 - 26) =     -1.95381  eV     2   --> G_5  D_5       
     e( 27 - 28) =      0.78992  eV     2   --> G_5  D_5       
     e( 29 - 30) =      1.01206  eV     2   --> G_5  D_5       
     e( 31 - 32) =      1.81187  eV     2   --> G_5  D_5       
     e( 33 - 34) =      2.53766  eV     2   --> G_5  D_5       
     e( 35 - 36) =      4.76781  eV     2   --> G_5  D_5       
     e( 37 - 37) =      5.21208  eV     1   -->   ?
     e( 38 - 38) =      5.21240  eV     1   -->   ?
     e( 39 - 39) =      5.22216  eV     1   -->   ?
     e( 40 - 40) =      5.22245  eV     1   -->   ?
     e( 41 - 42) =      5.44264  eV     2   --> G_5  D_5       

 **************************************************************************

 **************************************************************************

                    xk=(   0.00000,   0.40415,   0.00000  )

     Band symmetry, C_2v (mm2)  double point group:

     e(  1 -  2) =    -56.65016  eV     2   --> G_5  D_5       
     e(  3 -  4) =    -34.19266  eV     2   --> G_5  D_5       
     e(  5 -  6) =    -32.14170  eV     2   --> G_5  D_5       
     e(  7 -  8) =    -32.03245  eV     2   --> G_5  D_5       
     e(  9 -  9) =    -14.11215  eV     1   -->   ?
     e( 10 - 10) =    -14.11199  eV     1   -->   ?
     e( 11 - 11) =    -13.71142  eV     1   -->   ?
     e( 12 - 12) =    -13.71127  eV     1   -->   ?
     e( 13 - 13) =     -6.03303  eV     1   -->   ?
     e( 14 - 14) =     -6.03287  eV     1   -->   ?
     e( 15 - 15) =     -5.13881  eV     1   -->   ?
     e( 16 - 16) =     -5.13812  eV     1   -->   ?
     e( 17 - 17) =     -5.03342  eV     1   -->   ?
     e( 18 - 18) =     -5.03296  eV     1   -->   ?
     e( 19 - 20) =     -3.73514  eV     2   --> G_5  D_5       
     e( 21 - 22) =     -2.93467  eV     2   --> G_5  D_5       
     e( 23 - 24) =     -2.53000  eV     2   --> G_5  D_5       
     e( 25 - 26) =     -1.95264  eV     2   --> G_5  D_5       
     e( 27 - 28) =      0.79068  eV     2   --> G_5  D_5       
     e( 29 - 30) =      0.99165  eV     2   --> G_5  D_5       
     e( 31 - 32) =      1.77420  eV     2   --> G_5  D_5       
     e( 33 - 34) =      2.51837  eV     2   --> G_5  D_5       
     e( 35 - 36) =      4.74333  eV     2   --> G_5  D_5       
     e( 37 - 38) =      5.14469  eV     2   --> G_5  D_5       
     e( 39 - 40) =      5.24469  eV     2   --> G_5  D_5       
     e( 41 - 42) =      5.39001  eV     2   --> G_5  D_5       

 **************************************************************************

 **************************************************************************

                    xk=(   0.00000,   0.39452,   0.00000  )

     Band symmetry, C_2v (mm2)  double point group:

     e(  1 -  2) =    -56.65058  eV     2   --> G_5  D_5       
     e(  3 -  4) =    -34.19109  eV     2   --> G_5  D_5       
     e(  5 -  6) =    -32.13822  eV     2   --> G_5  D_5       
     e(  7 -  8) =    -32.03254  eV     2   --> G_5  D_5       
     e(  9 -  9) =    -14.14367  eV     1   -->   ?
     e( 10 - 10) =    -14.14352  eV     1   -->   ?
     e( 11 - 11) =    -13.72544  eV     1   -->   ?
     e( 12 - 12) =    -13.72529  eV     1   -->   ?
     e( 13 - 13) =     -5.98654  eV     1   -->   ?
     e( 14 - 14) =     -5.98636  eV     1   -->   ?
     e( 15 - 15) =     -5.11109  eV     1   -->   ?
     e( 16 - 16) =     -5.11026  eV     1   -->   ?
     e( 17 - 17) =     -5.02190  eV     1   -->   ?
     e( 18 - 18) =     -5.02133  eV     1   -->   ?
     e( 19 - 20) =     -3.70959  eV     2   --> G_5  D_5       
     e( 21 - 22) =     -2.92292  eV     2   --> G_5  D_5       
     e( 23 - 24) =     -2.54901  eV     2   --> G_5  D_5       
     e( 25 - 26) =     -1.94834  eV     2   --> G_5  D_5       
     e( 27 - 28) =      0.79253  eV     2   --> G_5  D_5       
     e( 29 - 30) =      0.97139  eV     2   --> G_5  D_5       
     e( 31 - 32) =      1.73518  eV     2   --> G_5  D_5       
     e( 33 - 34) =      2.49782  eV     2   --> G_5  D_5       
     e( 35 - 36) =      4.70233  eV     2   --> G_5  D_5       
     e( 37 - 38) =      5.06769  eV     2   --> G_5  D_5       
     e( 39 - 40) =      5.22277  eV     2   --> G_5  D_5       
     e( 41 - 42) =      5.40721  eV     2   --> G_5  D_5       

 **************************************************************************

 **************************************************************************

                    xk=(   0.00000,   0.38490,   0.00000  )

     Band symmetry, C_2v (mm2)  double point group:

     e(  1 -  2) =    -56.65105  eV     2   --> G_5  D_5       
     e(  3 -  4) =    -34.18947  eV     2   --> G_5  D_5       
     e(  5 -  6) =    -32.13463  eV     2   --> G_5  D_5       
     e(  7 -  8) =    -32.03263  eV     2   --> G_5  D_5       
     e(  9 -  9) =    -14.17595  eV     1   -->   ?
     e( 10 - 10) =    -14.17580  eV     1   -->   ?
     e( 11 - 11) =    -13.73982  eV     1   -->   ?
     e( 12 - 12) =    -13.73967  eV     1   -->   ?
     e( 13 - 13) =     -5.94043  eV     1   -->   ?
     e( 14 - 14) =     -5.94024  eV     1   -->   ?
     e( 15 - 15) =     -5.10355  eV     1   -->   ?
     e( 16 - 16) =     -5.10286  eV     1   -->   ?
     e( 17 - 17) =     -4.98777  eV     1   -->   ?
     e( 18 - 18) =     -4.98735  eV     1   -->   ?
     e( 19 - 20) =     -3.68285  eV     2   --> G_5  D_5       
     e( 21 - 22) =     -2.91100  eV     2   --> G_5  D_5       
     e( 23 - 24) =     -2.56819  eV     2   --> G_5  D_5       
     e( 25 - 26) =     -1.94076  eV     2   --> G_5  D_5       
     e( 27 - 28) =      0.79550  eV     2   --> G_5  D_5       
     e( 29 - 29) =      0.95141  eV     1   -->   ?
     e( 30 - 30) =      0.95151  eV     1   -->   ?
     e( 31 - 32) =      1.69502  eV     2   --> G_5  D_5       
     e( 33 - 34) =      2.47601  eV     2   --> G_5  D_5       
     e( 35 - 36) =      4.65161  eV     2   --> G_5  D_5       
     e( 37 - 38) =      4.99067  eV     2   --> G_5  D_5       
     e( 39 - 40) =      5.16081  eV     2   --> G_5  D_5       
     e( 41 - 42) =      5.47243  eV     2   --> G_5  D_5       

 **************************************************************************

 **************************************************************************

                    xk=(   0.00000,   0.37528,   0.00000  )

     Band symmetry, C_2v (mm2)  double point group:

     e(  1 -  2) =    -56.65143  eV     2   --> G_5  D_5       
     e(  3 -  4) =    -34.18779  eV     2   --> G_5  D_5       
     e(  5 -  6) =    -32.13090  eV     2   --> G_5  D_5       
     e(  7 -  8) =    -32.03270  eV     2   --> G_5  D_5       
     e(  9 -  9) =    -14.20888  eV     1   -->   ?
     e( 10 - 10) =    -14.20873  eV     1   -->   ?
     e( 11 - 11) =    -13.75452  eV     1   -->   ?
     e( 12 - 12) =    -13.75437  eV     1   -->   ?
     e( 13 - 13) =     -5.89554  eV     1   -->   ?
     e( 14 - 14) =     -5.89533  eV     1   -->   ?
     e( 15 - 15) =     -5.10677  eV     1   -->   ?
     e( 16 - 16) =     -5.10623  eV     1   -->   ?
     e( 17 - 17) =     -4.94010  eV     1   -->   ?
     e( 18 - 18) =     -4.93985  eV     1   -->   ?
     e( 19 - 20) =     -3.65496  eV     2   --> G_5  D_5       
     e( 21 - 22) =     -2.89922  eV     2   --> G_5  D_5       
     e( 23 - 24) =     -2.58715  eV     2   --> G_5  D_5       
     e( 25 - 26) =     -1.92982  eV     2   --> G_5  D_5       
     e( 27 - 28) =      0.79967  eV     2   --> G_5  D_5       
     e( 29 - 29) =      0.93191  eV     1   -->   ?
     e( 30 - 30) =      0.93202  eV     1   -->   ?
     e( 31 - 32) =      1.65393  eV     2   --> G_5  D_5       
     e( 33 - 34) =      2.45292  eV     2   --> G_5  D_5       
     e( 35 - 36) =      4.59512  eV     2   --> G_5  D_5       
     e( 37 - 38) =      4.91401  eV     2   --> G_5  D_5       
     e( 39 - 40) =      5.09115  eV     2   --> G_5  D_5       
     e( 41 - 42) =      5.54686  eV     2   --> G_5  D_5       

 **************************************************************************

 **************************************************************************

                    xk=(   0.00000,   0.36566,   0.00000  )

     Band symmetry, C_2v (mm2)  double point group:

     e(  1 -  2) =    -56.65185  eV     2   --> G_5  D_5       
     e(  3 -  4) =    -34.18608  eV     2   --> G_5  D_5       
     e(  5 -  6) =    -32.12707  eV     2   --> G_5  D_5       
     e(  7 -  8) =    -32.03277  eV     2   --> G_5  D_5       
     e(  9 -  9) =    -14.24235  eV     1   -->   ?
     e( 10 - 10) =    -14.24220  eV     1   -->   ?
     e( 11 - 11) =    -13.76949  eV     1   -->   ?
     e( 12 - 12) =    -13.76935  eV     1   -->   ?
     e( 13 - 13) =     -5.85291  eV     1   -->   ?
     e( 14 - 14) =     -5.85269  eV     1   -->   ?
     e( 15 - 15) =     -5.11216  eV     1   -->   ?
     e( 16 - 16) =     -5.11171  eV     1   -->   ?
     e( 17 - 17) =     -4.88673  eV     1   -->   ?
     e( 18 - 18) =     -4.88659  eV     1   -->   ?
     e( 19 - 20) =     -3.62596  eV     2   --> G_5  D_5       
     e( 21 - 22) =     -2.88804  eV     2   --> G_5  D_5       
     e( 23 - 24) =     -2.60537  eV     2   --> G_5  D_5       
     e( 25 - 26) =     -1.91549  eV     2   --> G_5  D_5       
     e( 27 - 28) =      0.80506  eV     2   --> G_5  D_5       
     e( 29 - 29) =      0.91302  eV     1   -->   ?
     e( 30 - 30) =      0.91313  eV     1   -->   ?
     e( 31 - 32) =      1.61209  eV     2   --> G_5  D_5       
     e( 33 - 34) =      2.42856  eV     2   --> G_5  D_5       
     e( 35 - 36) =      4.53511  eV     2   --> G_5  D_5       
     e( 37 - 38) =      4.83798  eV     2   --> G_5  D_5       
     e( 39 - 40) =      5.02086  eV     2   --> G_5  D_5       
     e( 41 - 42) =      5.61740  eV     2   --> G_5  D_5       

 **************************************************************************

 **************************************************************************

                    xk=(   0.00000,   0.35603,   0.00000  )

     Band symmetry, C_2v (mm2)  double point group:

     e(  1 -  2) =    -56.65235  eV     2   --> G_5  D_5       
     e(  3 -  4) =    -34.18434  eV     2   --> G_5  D_5       
     e(  5 -  6) =    -32.12316  eV     2   --> G_5  D_5       
     e(  7 -  8) =    -32.03284  eV     2   --> G_5  D_5       
     e(  9 -  9) =    -14.27625  eV     1   -->   ?
     e( 10 - 10) =    -14.27610  eV     1   -->   ?
     e( 11 - 11) =    -13.78469  eV     1   -->   ?
     e( 12 - 12) =    -13.78455  eV     1   -->   ?
     e( 13 - 13) =     -5.81384  eV     1   -->   ?
     e( 14 - 14) =     -5.81361  eV     1   -->   ?
     e( 15 - 15) =     -5.11587  eV     1   -->   ?
     e( 16 - 16) =     -5.11547  eV     1   -->   ?
     e( 17 - 18) =     -4.83038  eV     2   --> G_5  D_5       
     e( 19 - 20) =     -3.59589  eV     2   --> G_5  D_5       
     e( 21 - 22) =     -2.87818  eV     2   --> G_5  D_5       
     e( 23 - 24) =     -2.62210  eV     2   --> G_5  D_5       
     e( 25 - 26) =     -1.89782  eV     2   --> G_5  D_5       
     e( 27 - 28) =      0.81157  eV     2   --> G_5  D_5       
     e( 29 - 29) =      0.89497  eV     1   -->   ?
     e( 30 - 30) =      0.89508  eV     1   -->   ?
     e( 31 - 32) =      1.56973  eV     2   --> G_5  D_5       
     e( 33 - 34) =      2.40292  eV     2   --> G_5  D_5       
     e( 35 - 35) =      4.47296  eV     1   -->   ?
     e( 36 - 36) =      4.47307  eV     1   -->   ?
     e( 37 - 38) =      4.76282  eV     2   --> G_5  D_5       
     e( 39 - 40) =      4.95153  eV     2   --> G_5  D_5       
     e( 41 - 42) =      5.67572  eV     2   --> G_5  D_5       

 **************************************************************************

 **************************************************************************

                    xk=(   0.00000,   0.34641,   0.00000  )

     Band symmetry, C_2v (mm2)  double point group:

     e(  1 -  2) =    -56.65285  eV     2   --> G_5  D_5       
     e(  3 -  4) =    -34.18258  eV     2   --> G_5  D_5       
     e(  5 -  6) =    -32.11918  eV     2   --> G_5  D_5       
     e(  7 -  8) =    -32.03289  eV     2   --> G_5  D_5       
     e(  9 -  9) =    -14.31047  eV     1   -->   ?
     e( 10 - 10) =    -14.31033  eV     1   -->   ?
     e( 11 - 11) =    -13.80006  eV     1   -->   ?
     e( 12 - 12) =    -13.79992  eV     1   -->   ?
     e( 13 - 13) =     -5.77983  eV     1   -->   ?
     e( 14 - 14) =     -5.77958  eV     1   -->   ?
     e( 15 - 15) =     -5.11552  eV     1   -->   ?
     e( 16 - 16) =     -5.11516  eV     1   -->   ?
     e( 17 - 18) =     -4.77206  eV     2   --> G_5  D_5       
     e( 19 - 20) =     -3.56479  eV     2   --> G_5  D_5       
     e( 21 - 22) =     -2.87062  eV     2   --> G_5  D_5       
     e( 23 - 24) =     -2.63629  eV     2   --> G_5  D_5       
     e( 25 - 26) =     -1.87687  eV     2   --> G_5  D_5       
     e( 27 - 28) =      0.81903  eV     2   --> G_5  D_5       
     e( 29 - 29) =      0.87815  eV     1   -->   ?
     e( 30 - 30) =      0.87826  eV     1   -->   ?
     e( 31 - 32) =      1.52712  eV     2   --> G_5  D_5       
     e( 33 - 34) =      2.37602  eV     2   --> G_5  D_5       
     e( 35 - 35) =      4.40958  eV     1   -->   ?
     e( 36 - 36) =      4.40970  eV     1   -->   ?
     e( 37 - 38) =      4.68871  eV     2   --> G_5  D_5       
     e( 39 - 40) =      4.88362  eV     2   --> G_5  D_5       
     e( 41 - 41) =      5.71355  eV     1   -->   ?
     e( 42 - 42) =      5.71373  eV     1   -->   ?

 **************************************************************************

 **************************************************************************

                    xk=(   0.00000,   0.33679,   0.00000  )

     Band symmetry, C_2v (mm2)  double point group:

     e(  1 -  2) =    -56.65333  eV     2   --> G_5  D_5       
     e(  3 -  4) =    -34.18078  eV     2   --> G_5  D_5       
     e(  5 -  6) =    -32.11512  eV     2   --> G_5  D_5       
     e(  7 -  8) =    -32.03292  eV     2   --> G_5  D_5       
     e(  9 -  9) =    -14.34492  eV     1   -->   ?
     e( 10 - 10) =    -14.34478  eV     1   -->   ?
     e( 11 - 11) =    -13.81556  eV     1   -->   ?
     e( 12 - 12) =    -13.81542  eV     1   -->   ?
     e( 13 - 13) =     -5.75244  eV     1   -->   ?
     e( 14 - 14) =     -5.75219  eV     1   -->   ?
     e( 15 - 15) =     -5.10916  eV     1   -->   ?
     e( 16 - 16) =     -5.10882  eV     1   -->   ?
     e( 17 - 18) =     -4.71232  eV     2   --> G_5  D_5       
     e( 19 - 20) =     -3.53271  eV     2   --> G_5  D_5       
     e( 21 - 22) =     -2.86660  eV     2   --> G_5  D_5       
     e( 23 - 24) =     -2.64663  eV     2   --> G_5  D_5       
     e( 25 - 26) =     -1.85280  eV     2   --> G_5  D_5       
     e( 27 - 28) =      0.82660  eV     2   --> G_5  D_5       
     e( 29 - 30) =      0.86359  eV     2   --> G_5  D_5       
     e( 31 - 32) =      1.48448  eV     2   --> G_5  D_5       
     e( 33 - 34) =      2.34786  eV     2   --> G_5  D_5       
     e( 35 - 35) =      4.34561  eV     1   -->   ?
     e( 36 - 36) =      4.34573  eV     1   -->   ?
     e( 37 - 38) =      4.61581  eV     2   --> G_5  D_5       
     e( 39 - 40) =      4.81724  eV     2   --> G_5  D_5       
     e( 41 - 42) =      5.66086  eV     2   --> G_5  D_5       

 **************************************************************************

 **************************************************************************

                    xk=(   0.00000,   0.32717,   0.00000  )

     Band symmetry, C_2v (mm2)  double point group:

     e(  1 -  2) =    -56.65382  eV     2   --> G_5  D_5       
     e(  3 -  4) =    -34.17896  eV     2   --> G_5  D_5       
     e(  5 -  6) =    -32.11100  eV     2   --> G_5  D_5       
     e(  7 -  8) =    -32.03295  eV     2   --> G_5  D_5       
     e(  9 -  9) =    -14.37950  eV     1   -->   ?
     e( 10 - 10) =    -14.37936  eV     1   -->   ?
     e( 11 - 11) =    -13.83114  eV     1   -->   ?
     e( 12 - 12) =    -13.83101  eV     1   -->   ?
     e( 13 - 13) =     -5.73306  eV     1   -->   ?
     e( 14 - 14) =     -5.73281  eV     1   -->   ?
     e( 15 - 15) =     -5.09519  eV     1   -->   ?
     e( 16 - 16) =     -5.09488  eV     1   -->   ?
     e( 17 - 18) =     -4.65148  eV     2   --> G_5  D_5       
     e( 19 - 20) =     -3.49969  eV     2   --> G_5  D_5       
     e( 21 - 22) =     -2.86740  eV     2   --> G_5  D_5       
     e( 23 - 24) =     -2.65180  eV     2   --> G_5  D_5       
     e( 25 - 26) =     -1.82576  eV     2   --> G_5  D_5       
     e( 27 - 28) =      0.83018  eV     2   --> G_5  D_5       
     e( 29 - 30) =      0.85548  eV     2   --> G_5  D_5       
     e( 31 - 32) =      1.44207  eV     2   --> G_5  D_5       
     e( 33 - 34) =      2.31845  eV     2   --> G_5  D_5       
     e( 35 - 35) =      4.28152  eV     1   -->   ?
     e( 36 - 36) =      4.28165  eV     1   -->   ?
     e( 37 - 38) =      4.54425  eV     2   --> G_5  D_5       
     e( 39 - 40) =      4.75237  eV     2   --> G_5  D_5       
     e( 41 - 42) =      5.59807  eV     2   --> G_5  D_5       

 **************************************************************************

 **************************************************************************

                    xk=(   0.00000,   0.31754,   0.00000  )

     Band symmetry, C_2v (mm2)  double point group:

     e(  1 -  2) =    -56.65427  eV     2   --> G_5  D_5       
     e(  3 -  4) =    -34.17712  eV     2   --> G_5  D_5       
     e(  5 -  6) =    -32.10684  eV     2   --> G_5  D_5       
     e(  7 -  8) =    -32.03294  eV     2   --> G_5  D_5       
     e(  9 -  9) =    -14.41410  eV     1   -->   ?
     e( 10 - 10) =    -14.41396  eV     1   -->   ?
     e( 11 - 11) =    -13.84675  eV     1   -->   ?
     e( 12 - 12) =    -13.84663  eV     1   -->   ?
     e( 13 - 13) =     -5.72252  eV     1   -->   ?
     e( 14 - 14) =     -5.72228  eV     1   -->   ?
     e( 15 - 15) =     -5.07264  eV     1   -->   ?
     e( 16 - 16) =     -5.07237  eV     1   -->   ?
     e( 17 - 18) =     -4.58977  eV     2   --> G_5  D_5       
     e( 19 - 20) =     -3.46579  eV     2   --> G_5  D_5       
     e( 21 - 22) =     -2.87377  eV     2   --> G_5  D_5       
     e( 23 - 24) =     -2.65103  eV     2   --> G_5  D_5       
     e( 25 - 25) =     -1.79598  eV     1   -->   ?
     e( 26 - 26) =     -1.79588  eV     1   -->   ?
     e( 27 - 27) =      0.82360  eV     1   -->   ?
     e( 28 - 28) =      0.82373  eV     1   -->   ?
     e( 29 - 30) =      0.86013  eV     2   --> G_5  D_5       
     e( 31 - 32) =      1.40016  eV     2   --> G_5  D_5       
     e( 33 - 34) =      2.28784  eV     2   --> G_5  D_5       
     e( 35 - 35) =      4.21770  eV     1   -->   ?
     e( 36 - 36) =      4.21783  eV     1   -->   ?
     e( 37 - 38) =      4.47414  eV     2   --> G_5  D_5       
     e( 39 - 40) =      4.68897  eV     2   --> G_5  D_5       
     e( 41 - 42) =      5.53543  eV     2   --> G_5  D_5       

 **************************************************************************

 **************************************************************************

                    xk=(   0.00000,   0.30792,   0.00000  )

     Band symmetry, C_2v (mm2)  double point group:

     e(  1 -  2) =    -56.65476  eV     2   --> G_5  D_5       
     e(  3 -  4) =    -34.17528  eV     2   --> G_5  D_5       
     e(  5 -  6) =    -32.10266  eV     2   --> G_5  D_5       
     e(  7 -  8) =    -32.03292  eV     2   --> G_5  D_5       
     e(  9 -  9) =    -14.44863  eV     1   -->   ?
     e( 10 - 10) =    -14.44850  eV     1   -->   ?
     e( 11 - 11) =    -13.86236  eV     1   -->   ?
     e( 12 - 12) =    -13.86224  eV     1   -->   ?
     e( 13 - 13) =     -5.72086  eV     1   -->   ?
     e( 14 - 14) =     -5.72064  eV     1   -->   ?
     e( 15 - 15) =     -5.04137  eV     1   -->   ?
     e( 16 - 16) =     -5.04114  eV     1   -->   ?
     e( 17 - 18) =     -4.52742  eV     2   --> G_5  D_5       
     e( 19 - 20) =     -3.43108  eV     2   --> G_5  D_5       
     e( 21 - 22) =     -2.88558  eV     2   --> G_5  D_5       
     e( 23 - 24) =     -2.64441  eV     2   --> G_5  D_5       
     e( 25 - 25) =     -1.76371  eV     1   -->   ?
     e( 26 - 26) =     -1.76360  eV     1   -->   ?
     e( 27 - 27) =      0.81298  eV     1   -->   ?
     e( 28 - 28) =      0.81312  eV     1   -->   ?
     e( 29 - 30) =      0.87163  eV     2   --> G_5  D_5       
     e( 31 - 32) =      1.35901  eV     2   --> G_5  D_5       
     e( 33 - 34) =      2.25605  eV     2   --> G_5  D_5       
     e( 35 - 35) =      4.15444  eV     1   -->   ?
     e( 36 - 36) =      4.15457  eV     1   -->   ?
     e( 37 - 38) =      4.40557  eV     2   --> G_5  D_5       
     e( 39 - 40) =      4.62698  eV     2   --> G_5  D_5       
     e( 41 - 42) =      5.47334  eV     2   --> G_5  D_5       

 **************************************************************************

 **************************************************************************

                    xk=(   0.00000,   0.29830,   0.00000  )

     Band symmetry, C_2v (mm2)  double point group:

     e(  1 -  2) =    -56.65525  eV     2   --> G_5  D_5       
     e(  3 -  4) =    -34.17343  eV     2   --> G_5  D_5       
     e(  5 -  6) =    -32.09846  eV     2   --> G_5  D_5       
     e(  7 -  8) =    -32.03287  eV     2   --> G_5  D_5       
     e(  9 -  9) =    -14.48300  eV     1   -->   ?
     e( 10 - 10) =    -14.48288  eV     1   -->   ?
     e( 11 - 11) =    -13.87792  eV     1   -->   ?
     e( 12 - 12) =    -13.87780  eV     1   -->   ?
     e( 13 - 13) =     -5.72739  eV     1   -->   ?
     e( 14 - 14) =     -5.72719  eV     1   -->   ?
     e( 15 - 15) =     -5.00199  eV     1   -->   ?
     e( 16 - 16) =     -5.00178  eV     1   -->   ?
     e( 17 - 17) =     -4.46461  eV     1   -->   ?
     e( 18 - 18) =     -4.46451  eV     1   -->   ?
     e( 19 - 20) =     -3.39561  eV     2   --> G_5  D_5       
     e( 21 - 22) =     -2.90197  eV     2   --> G_5  D_5       
     e( 23 - 24) =     -2.63284  eV     2   --> G_5  D_5       
     e( 25 - 25) =     -1.72926  eV     1   -->   ?
     e( 26 - 26) =     -1.72914  eV     1   -->   ?
     e( 27 - 27) =      0.80265  eV     1   -->   ?
     e( 28 - 28) =      0.80280  eV     1   -->   ?
     e( 29 - 30) =      0.88570  eV     2   --> G_5  D_5       
     e( 31 - 32) =      1.31893  eV     2   --> G_5  D_5       
     e( 33 - 34) =      2.22313  eV     2   --> G_5  D_5       
     e( 35 - 35) =      4.09198  eV     1   -->   ?
     e( 36 - 36) =      4.09211  eV     1   -->   ?
     e( 37 - 38) =      4.33861  eV     2   --> G_5  D_5       
     e( 39 - 40) =      4.56635  eV     2   --> G_5  D_5       
     e( 41 - 42) =      5.41204  eV     2   --> G_5  D_5       

 **************************************************************************

 **************************************************************************

                    xk=(   0.00000,   0.28868,   0.00000  )

     Band symmetry, C_2v (mm2)  double point group:

     e(  1 -  2) =    -56.65574  eV     2   --> G_5  D_5       
     e(  3 -  4) =    -34.17158  eV     2   --> G_5  D_5       
     e(  5 -  6) =    -32.09428  eV     2   --> G_5  D_5       
     e(  7 -  8) =    -32.03279  eV     2   --> G_5  D_5       
     e(  9 -  9) =    -14.51713  eV     1   -->   ?
     e( 10 - 10) =    -14.51701  eV     1   -->   ?
     e( 11 - 11) =    -13.89339  eV     1   -->   ?
     e( 12 - 12) =    -13.89327  eV     1   -->   ?
     e( 13 - 13) =     -5.74094  eV     1   -->   ?
     e( 14 - 14) =     -5.74076  eV     1   -->   ?
     e( 15 - 15) =     -4.95557  eV     1   -->   ?
     e( 16 - 16) =     -4.95541  eV     1   -->   ?
     e( 17 - 17) =     -4.40153  eV     1   -->   ?
     e( 18 - 18) =     -4.40141  eV     1   -->   ?
     e( 19 - 20) =     -3.35944  eV     2   --> G_5  D_5       
     e( 21 - 22) =     -2.92180  eV     2   --> G_5  D_5       
     e( 23 - 24) =     -2.61742  eV     2   --> G_5  D_5       
     e( 25 - 25) =     -1.69291  eV     1   -->   ?
     e( 26 - 26) =     -1.69278  eV     1   -->   ?
     e( 27 - 27) =      0.79372  eV     1   -->   ?
     e( 28 - 28) =      0.79387  eV     1   -->   ?
     e( 29 - 30) =      0.90138  eV     2   --> G_5  D_5       
     e( 31 - 32) =      1.28021  eV     2   --> G_5  D_5       
     e( 33 - 34) =      2.18912  eV     2   --> G_5  D_5       
     e( 35 - 35) =      4.03050  eV     1   -->   ?
     e( 36 - 36) =      4.03064  eV     1   -->   ?
     e( 37 - 38) =      4.27334  eV     2   --> G_5  D_5       
     e( 39 - 40) =      4.50701  eV     2   --> G_5  D_5       
     e( 41 - 42) =      5.35176  eV     2   --> G_5  D_5       

 **************************************************************************

 **************************************************************************

                    xk=(   0.00000,   0.27905,   0.00000  )

     Band symmetry, C_2v (mm2)  double point group:

     e(  1 -  2) =    -56.65626  eV     2   --> G_5  D_5       
     e(  3 -  4) =    -34.16975  eV     2   --> G_5  D_5       
     e(  5 -  6) =    -32.09012  eV     2   --> G_5  D_5       
     e(  7 -  8) =    -32.03268  eV     2   --> G_5  D_5       
     e(  9 -  9) =    -14.55093  eV     1   -->   ?
     e( 10 - 10) =    -14.55082  eV     1   -->   ?
     e( 11 - 11) =    -13.90873  eV     1   -->   ?
     e( 12 - 12) =    -13.90861  eV     1   -->   ?
     e( 13 - 13) =     -5.76019  eV     1   -->   ?
     e( 14 - 14) =     -5.76003  eV     1   -->   ?
     e( 15 - 15) =     -4.90338  eV     1   -->   ?
     e( 16 - 16) =     -4.90325  eV     1   -->   ?
     e( 17 - 17) =     -4.33834  eV     1   -->   ?
     e( 18 - 18) =     -4.33820  eV     1   -->   ?
     e( 19 - 20) =     -3.32266  eV     2   --> G_5  D_5       
     e( 21 - 22) =     -2.94408  eV     2   --> G_5  D_5       
     e( 23 - 24) =     -2.59922  eV     2   --> G_5  D_5       
     e( 25 - 25) =     -1.65502  eV     1   -->   ?
     e( 26 - 26) =     -1.65488  eV     1   -->   ?
     e( 27 - 27) =      0.78658  eV     1   -->   ?
     e( 28 - 28) =      0.78673  eV     1   -->   ?
     e( 29 - 30) =      0.91833  eV     2   --> G_5  D_5       
     e( 31 - 32) =      1.24317  eV     2   --> G_5  D_5       
     e( 33 - 34) =      2.15408  eV     2   --> G_5  D_5       
     e( 35 - 35) =      3.97018  eV     1   -->   ?
     e( 36 - 36) =      3.97031  eV     1   -->   ?
     e( 37 - 38) =      4.20982  eV     2   --> G_5  D_5       
     e( 39 - 40) =      4.44891  eV     2   --> G_5  D_5       
     e( 41 - 42) =      5.29264  eV     2   --> G_5  D_5       

 **************************************************************************

 **************************************************************************

                    xk=(   0.00000,   0.26943,   0.00000  )

     Band symmetry, C_2v (mm2)  double point group:

     e(  1 -  2) =    -56.65679  eV     2   --> G_5  D_5       
     e(  3 -  4) =    -34.16793  eV     2   --> G_5  D_5       
     e(  5 -  6) =    -32.08601  eV     2   --> G_5  D_5       
     e(  7 -  8) =    -32.03252  eV     2   --> G_5  D_5       
     e(  9 -  9) =    -14.58432  eV     1   -->   ?
     e( 10 - 10) =    -14.58421  eV     1   -->   ?
     e( 11 - 11) =    -13.92389  eV     1   -->   ?
     e( 12 - 12) =    -13.92378  eV     1   -->   ?
     e( 13 - 13) =     -5.78389  eV     1   -->   ?
     e( 14 - 14) =     -5.78374  eV     1   -->   ?
     e( 15 - 15) =     -4.84661  eV     1   -->   ?
     e( 16 - 16) =     -4.84651  eV     1   -->   ?
     e( 17 - 17) =     -4.27520  eV     1   -->   ?
     e( 18 - 18) =     -4.27505  eV     1   -->   ?
     e( 19 - 20) =     -3.28535  eV     2   --> G_5  D_5       
     e( 21 - 22) =     -2.96801  eV     2   --> G_5  D_5       
     e( 23 - 24) =     -2.57907  eV     2   --> G_5  D_5       
     e( 25 - 25) =     -1.61592  eV     1   -->   ?
     e( 26 - 26) =     -1.61578  eV     1   -->   ?
     e( 27 - 27) =      0.78151  eV     1   -->   ?
     e( 28 - 28) =      0.78166  eV     1   -->   ?
     e( 29 - 30) =      0.93633  eV     2   --> G_5  D_5       
     e( 31 - 32) =      1.20815  eV     2   --> G_5  D_5       
     e( 33 - 34) =      2.11810  eV     2   --> G_5  D_5       
     e( 35 - 35) =      3.91113  eV     1   -->   ?
     e( 36 - 36) =      3.91127  eV     1   -->   ?
     e( 37 - 38) =      4.14810  eV     2   --> G_5  D_5       
     e( 39 - 40) =      4.39200  eV     2   --> G_5  D_5       
     e( 41 - 42) =      5.23483  eV     2   --> G_5  D_5       

 **************************************************************************

 **************************************************************************

                    xk=(   0.00000,   0.25981,   0.00000  )

     Band symmetry, C_2v (mm2)  double point group:

     e(  1 -  2) =    -56.65727  eV     2   --> G_5  D_5       
     e(  3 -  4) =    -34.16612  eV     2   --> G_5  D_5       
     e(  5 -  6) =    -32.08196  eV     2   --> G_5  D_5       
     e(  7 -  8) =    -32.03229  eV     2   --> G_5  D_5       
     e(  9 -  9) =    -14.61722  eV     1   -->   ?
     e( 10 - 10) =    -14.61711  eV     1   -->   ?
     e( 11 - 11) =    -13.93885  eV     1   -->   ?
     e( 12 - 12) =    -13.93875  eV     1   -->   ?
     e( 13 - 13) =     -5.81094  eV     1   -->   ?
     e( 14 - 14) =     -5.81081  eV     1   -->   ?
     e( 15 - 16) =     -4.78629  eV     2   --> G_5  D_5       
     e( 17 - 17) =     -4.21226  eV     1   -->   ?
     e( 18 - 18) =     -4.21210  eV     1   -->   ?
     e( 19 - 20) =     -3.24758  eV     2   --> G_5  D_5       
     e( 21 - 22) =     -2.99301  eV     2   --> G_5  D_5       
     e( 23 - 24) =     -2.55763  eV     2   --> G_5  D_5       
     e( 25 - 25) =     -1.57598  eV     1   -->   ?
     e( 26 - 26) =     -1.57583  eV     1   -->   ?
     e( 27 - 27) =      0.77873  eV     1   -->   ?
     e( 28 - 28) =      0.77889  eV     1   -->   ?
     e( 29 - 30) =      0.95514  eV     2   --> G_5  D_5       
     e( 31 - 32) =      1.17558  eV     2   --> G_5  D_5       
     e( 33 - 34) =      2.08125  eV     2   --> G_5  D_5       
     e( 35 - 35) =      3.85347  eV     1   -->   ?
     e( 36 - 36) =      3.85360  eV     1   -->   ?
     e( 37 - 38) =      4.08821  eV     2   --> G_5  D_5       
     e( 39 - 40) =      4.33624  eV     2   --> G_5  D_5       
     e( 41 - 42) =      5.17843  eV     2   --> G_5  D_5       

 **************************************************************************

 **************************************************************************

                    xk=(   0.00000,   0.25019,   0.00000  )

     Band symmetry, C_2v (mm2)  double point group:

     e(  1 -  2) =    -56.65773  eV     2   --> G_5  D_5       
     e(  3 -  4) =    -34.16432  eV     2   --> G_5  D_5       
     e(  5 -  6) =    -32.07799  eV     2   --> G_5  D_5       
     e(  7 -  8) =    -32.03200  eV     2   --> G_5  D_5       
     e(  9 -  9) =    -14.64955  eV     1   -->   ?
     e( 10 - 10) =    -14.64944  eV     1   -->   ?
     e( 11 - 11) =    -13.95356  eV     1   -->   ?
     e( 12 - 12) =    -13.95346  eV     1   -->   ?
     e( 13 - 13) =     -5.84047  eV     1   -->   ?
     e( 14 - 14) =     -5.84035  eV     1   -->   ?
     e( 15 - 16) =     -4.72327  eV     2   --> G_5  D_5       
     e( 17 - 17) =     -4.14965  eV     1   -->   ?
     e( 18 - 18) =     -4.14948  eV     1   -->   ?
     e( 19 - 20) =     -3.20946  eV     2   --> G_5  D_5       
     e( 21 - 22) =     -3.01865  eV     2   --> G_5  D_5       
     e( 23 - 24) =     -2.53544  eV     2   --> G_5  D_5       
     e( 25 - 25) =     -1.53557  eV     1   -->   ?
     e( 26 - 26) =     -1.53540  eV     1   -->   ?
     e( 27 - 27) =      0.77845  eV     1   -->   ?
     e( 28 - 28) =      0.77861  eV     1   -->   ?
     e( 29 - 30) =      0.97442  eV     2   --> G_5  D_5       
     e( 31 - 32) =      1.14598  eV     2   --> G_5  D_5       
     e( 33 - 34) =      2.04362  eV     2   --> G_5  D_5       
     e( 35 - 35) =      3.79726  eV     1   -->   ?
     e( 36 - 36) =      3.79739  eV     1   -->   ?
     e( 37 - 38) =      4.03021  eV     2   --> G_5  D_5       
     e( 39 - 40) =      4.28156  eV     2   --> G_5  D_5       
     e( 41 - 42) =      5.12352  eV     2   --> G_5  D_5       

 **************************************************************************

 **************************************************************************

                    xk=(   0.00000,   0.24056,   0.00000  )

     Band symmetry, C_2v (mm2)  double point group:

     e(  1 -  2) =    -56.65820  eV     2   --> G_5  D_5       
     e(  3 -  4) =    -34.16255  eV     2   --> G_5  D_5       
     e(  5 -  6) =    -32.07414  eV     2   --> G_5  D_5       
     e(  7 -  8) =    -32.03162  eV     2   --> G_5  D_5       
     e(  9 -  9) =    -14.68124  eV     1   -->   ?
     e( 10 - 10) =    -14.68114  eV     1   -->   ?
     e( 11 - 12) =    -13.96800  eV     2   --> G_5  D_5       
     e( 13 - 13) =     -5.87174  eV     1   -->   ?
     e( 14 - 14) =     -5.87164  eV     1   -->   ?
     e( 15 - 16) =     -4.65827  eV     2   --> G_5  D_5       
     e( 17 - 17) =     -4.08750  eV     1   -->   ?
     e( 18 - 18) =     -4.08733  eV     1   -->   ?
     e( 19 - 20) =     -3.17114  eV     2   --> G_5  D_5       
     e( 21 - 22) =     -3.04453  eV     2   --> G_5  D_5       
     e( 23 - 24) =     -2.51295  eV     2   --> G_5  D_5       
     e( 25 - 25) =     -1.49504  eV     1   -->   ?
     e( 26 - 26) =     -1.49487  eV     1   -->   ?
     e( 27 - 27) =      0.78082  eV     1   -->   ?
     e( 28 - 28) =      0.78098  eV     1   -->   ?
     e( 29 - 30) =      0.99349  eV     2   --> G_5  D_5       
     e( 31 - 31) =      1.12016  eV     1   -->   ?
     e( 32 - 32) =      1.12026  eV     1   -->   ?
     e( 33 - 34) =      2.00533  eV     2   --> G_5  D_5       
     e( 35 - 35) =      3.74256  eV     1   -->   ?
     e( 36 - 36) =      3.74270  eV     1   -->   ?
     e( 37 - 38) =      3.97413  eV     2   --> G_5  D_5       
     e( 39 - 40) =      4.22791  eV     2   --> G_5  D_5       
     e( 41 - 42) =      5.07019  eV     2   --> G_5  D_5       

 **************************************************************************

 **************************************************************************

                    xk=(   0.00000,   0.23094,   0.00000  )

     Band symmetry, C_2v (mm2)  double point group:

     e(  1 -  2) =    -56.65866  eV     2   --> G_5  D_5       
     e(  3 -  4) =    -34.16081  eV     2   --> G_5  D_5       
     e(  5 -  6) =    -32.07044  eV     2   --> G_5  D_5       
     e(  7 -  8) =    -32.03115  eV     2   --> G_5  D_5       
     e(  9 - 10) =    -14.71222  eV     2   --> G_5  D_5       
     e( 11 - 12) =    -13.98212  eV     2   --> G_5  D_5       
     e( 13 - 14) =     -5.90418  eV     2   --> G_5  D_5       
     e( 15 - 16) =     -4.59187  eV     2   --> G_5  D_5       
     e( 17 - 17) =     -4.02595  eV     1   -->   ?
     e( 18 - 18) =     -4.02577  eV     1   -->   ?
     e( 19 - 19) =     -3.13293  eV     1   -->   ?
     e( 20 - 20) =     -3.13276  eV     1   -->   ?
     e( 21 - 21) =     -3.07025  eV     1   -->   ?
     e( 22 - 22) =     -3.07007  eV     1   -->   ?
     e( 23 - 24) =     -2.49057  eV     2   --> G_5  D_5       
     e( 25 - 25) =     -1.45478  eV     1   -->   ?
     e( 26 - 26) =     -1.45460  eV     1   -->   ?
     e( 27 - 27) =      0.78600  eV     1   -->   ?
     e( 28 - 28) =      0.78616  eV     1   -->   ?
     e( 29 - 30) =      1.01078  eV     2   --> G_5  D_5       
     e( 31 - 31) =      1.09989  eV     1   -->   ?
     e( 32 - 32) =      1.10001  eV     1   -->   ?
     e( 33 - 34) =      1.96647  eV     2   --> G_5  D_5       
     e( 35 - 35) =      3.68944  eV     1   -->   ?
     e( 36 - 36) =      3.68957  eV     1   -->   ?
     e( 37 - 38) =      3.91999  eV     2   --> G_5  D_5       
     e( 39 - 40) =      4.17522  eV     2   --> G_5  D_5       
     e( 41 - 42) =      5.01848  eV     2   --> G_5  D_5       

 **************************************************************************

 **************************************************************************

                    xk=(   0.00000,   0.22132,   0.00000  )

     Band symmetry, C_2v (mm2)  double point group:

     e(  1 -  2) =    -56.65919  eV     2   --> G_5  D_5       
     e(  3 -  4) =    -34.15913  eV     2   --> G_5  D_5       
     e(  5 -  6) =    -32.06693  eV     2   --> G_5  D_5       
     e(  7 -  8) =    -32.03056  eV     2   --> G_5  D_5       
     e(  9 - 10) =    -14.74243  eV     2   --> G_5  D_5       
     e( 11 - 12) =    -13.99590  eV     2   --> G_5  D_5       
     e( 13 - 14) =     -5.93729  eV     2   --> G_5  D_5       
     e( 15 - 16) =     -4.52458  eV     2   --> G_5  D_5       
     e( 17 - 17) =     -3.96509  eV     1   -->   ?
     e( 18 - 18) =     -3.96490  eV     1   -->   ?
     e( 19 - 19) =     -3.10253  eV     1   -->   ?
     e( 20 - 20) =     -3.10168  eV     1   -->   ?
     e( 21 - 21) =     -3.08852  eV     1   -->   ?
     e( 22 - 22) =     -3.08766  eV     1   -->   ?
     e( 23 - 24) =     -2.46868  eV     2   --> G_5  D_5       
     e( 25 - 25) =     -1.41512  eV     1   -->   ?
     e( 26 - 26) =     -1.41494  eV     1   -->   ?
     e( 27 - 27) =      0.79410  eV     1   -->   ?
     e( 28 - 28) =      0.79427  eV     1   -->   ?
     e( 29 - 30) =      1.02218  eV     2   --> G_5  D_5       
     e( 31 - 31) =      1.08939  eV     1   -->   ?
     e( 32 - 32) =      1.08953  eV     1   -->   ?
     e( 33 - 34) =      1.92719  eV     2   --> G_5  D_5       
     e( 35 - 35) =      3.63789  eV     1   -->   ?
     e( 36 - 36) =      3.63803  eV     1   -->   ?
     e( 37 - 38) =      3.86783  eV     2   --> G_5  D_5       
     e( 39 - 40) =      4.12341  eV     2   --> G_5  D_5       
     e( 41 - 42) =      4.96846  eV     2   --> G_5  D_5       

 **************************************************************************

 **************************************************************************

                    xk=(   0.00000,   0.21170,   0.00000  )

     Band symmetry, C_2v (mm2)  double point group:

     e(  1 -  2) =    -56.65971  eV     2   --> G_5  D_5       
     e(  3 -  4) =    -34.15748  eV     2   --> G_5  D_5       
     e(  5 -  6) =    -32.06364  eV     2   --> G_5  D_5       
     e(  7 -  8) =    -32.02983  eV     2   --> G_5  D_5       
     e(  9 - 10) =    -14.77181  eV     2   --> G_5  D_5       
     e( 11 - 12) =    -14.00930  eV     2   --> G_5  D_5       
     e( 13 - 14) =     -5.97070  eV     2   --> G_5  D_5       
     e( 15 - 16) =     -4.45680  eV     2   --> G_5  D_5       
     e( 17 - 17) =     -3.90503  eV     1   -->   ?
     e( 18 - 18) =     -3.90484  eV     1   -->   ?
     e( 19 - 19) =     -3.12313  eV     1   -->   ?
     e( 20 - 20) =     -3.12293  eV     1   -->   ?
     e( 21 - 21) =     -3.05415  eV     1   -->   ?
     e( 22 - 22) =     -3.05395  eV     1   -->   ?
     e( 23 - 24) =     -2.44762  eV     2   --> G_5  D_5       
     e( 25 - 25) =     -1.37640  eV     1   -->   ?
     e( 26 - 26) =     -1.37621  eV     1   -->   ?
     e( 27 - 27) =      0.80525  eV     1   -->   ?
     e( 28 - 28) =      0.80542  eV     1   -->   ?
     e( 29 - 30) =      1.02269  eV     2   --> G_5  D_5       
     e( 31 - 31) =      1.09379  eV     1   -->   ?
     e( 32 - 32) =      1.09393  eV     1   -->   ?
     e( 33 - 34) =      1.88761  eV     2   --> G_5  D_5       
     e( 35 - 35) =      3.58795  eV     1   -->   ?
     e( 36 - 36) =      3.58809  eV     1   -->   ?
     e( 37 - 38) =      3.81767  eV     2   --> G_5  D_5       
     e( 39 - 40) =      4.07240  eV     2   --> G_5  D_5       
     e( 41 - 42) =      4.92013  eV     2   --> G_5  D_5       

 **************************************************************************

 **************************************************************************

                    xk=(   0.00000,   0.20207,   0.00000  )

     Band symmetry, C_2v (mm2)  double point group:

     e(  1 -  2) =    -56.66019  eV     2   --> G_5  D_5       
     e(  3 -  4) =    -34.15587  eV     2   --> G_5  D_5       
     e(  5 -  6) =    -32.06058  eV     2   --> G_5  D_5       
     e(  7 -  8) =    -32.02893  eV     2   --> G_5  D_5       
     e(  9 - 10) =    -14.80028  eV     2   --> G_5  D_5       
     e( 11 - 12) =    -14.02230  eV     2   --> G_5  D_5       
     e( 13 - 14) =     -6.00405  eV     2   --> G_5  D_5       
     e( 15 - 16) =     -4.38892  eV     2   --> G_5  D_5       
     e( 17 - 17) =     -3.84588  eV     1   -->   ?
     e( 18 - 18) =     -3.84568  eV     1   -->   ?
     e( 19 - 19) =     -3.14777  eV     1   -->   ?
     e( 20 - 20) =     -3.14765  eV     1   -->   ?
     e( 21 - 21) =     -3.01595  eV     1   -->   ?
     e( 22 - 22) =     -3.01584  eV     1   -->   ?
     e( 23 - 24) =     -2.42774  eV     2   --> G_5  D_5       
     e( 25 - 25) =     -1.33892  eV     1   -->   ?
     e( 26 - 26) =     -1.33872  eV     1   -->   ?
     e( 27 - 27) =      0.81949  eV     1   -->   ?
     e( 28 - 28) =      0.81966  eV     1   -->   ?
     e( 29 - 30) =      1.01591  eV     2   --> G_5  D_5       
     e( 31 - 31) =      1.10959  eV     1   -->   ?
     e( 32 - 32) =      1.10972  eV     1   -->   ?
     e( 33 - 34) =      1.84791  eV     2   --> G_5  D_5       
     e( 35 - 35) =      3.53961  eV     1   -->   ?
     e( 36 - 36) =      3.53975  eV     1   -->   ?
     e( 37 - 38) =      3.76954  eV     2   --> G_5  D_5       
     e( 39 - 40) =      4.02209  eV     2   --> G_5  D_5       
     e( 41 - 42) =      4.87351  eV     2   --> G_5  D_5       

 **************************************************************************

 **************************************************************************

                    xk=(   0.00000,   0.19245,   0.00000  )

     Band symmetry, C_2v (mm2)  double point group:

     e(  1 -  2) =    -56.66060  eV     2   --> G_5  D_5       
     e(  3 -  4) =    -34.15429  eV     2   --> G_5  D_5       
     e(  5 -  6) =    -32.05780  eV     2   --> G_5  D_5       
     e(  7 -  8) =    -32.02783  eV     2   --> G_5  D_5       
     e(  9 - 10) =    -14.82781  eV     2   --> G_5  D_5       
     e( 11 - 12) =    -14.03487  eV     2   --> G_5  D_5       
     e( 13 - 14) =     -6.03709  eV     2   --> G_5  D_5       
     e( 15 - 16) =     -4.32128  eV     2   --> G_5  D_5       
     e( 17 - 17) =     -3.78774  eV     1   -->   ?
     e( 18 - 18) =     -3.78753  eV     1   -->   ?
     e( 19 - 20) =     -3.17193  eV     2   --> G_5  D_5       
     e( 21 - 22) =     -2.97788  eV     2   --> G_5  D_5       
     e( 23 - 24) =     -2.40935  eV     2   --> G_5  D_5       
     e( 25 - 25) =     -1.30295  eV     1   -->   ?
     e( 26 - 26) =     -1.30275  eV     1   -->   ?
     e( 27 - 27) =      0.83686  eV     1   -->   ?
     e( 28 - 28) =      0.83703  eV     1   -->   ?
     e( 29 - 30) =      1.00838  eV     2   --> G_5  D_5       
     e( 31 - 31) =      1.13030  eV     1   -->   ?
     e( 32 - 32) =      1.13042  eV     1   -->   ?
     e( 33 - 34) =      1.80825  eV     2   --> G_5  D_5       
     e( 35 - 35) =      3.49284  eV     1   -->   ?
     e( 36 - 36) =      3.49299  eV     1   -->   ?
     e( 37 - 38) =      3.72344  eV     2   --> G_5  D_5       
     e( 39 - 40) =      3.97234  eV     2   --> G_5  D_5       
     e( 41 - 42) =      4.82840  eV     2   --> G_5  D_5       

 **************************************************************************

 **************************************************************************

                    xk=(   0.00000,   0.18283,   0.00000  )

     Band symmetry, C_2v (mm2)  double point group:

     e(  1 -  2) =    -56.66105  eV     2   --> G_5  D_5       
     e(  3 -  4) =    -34.15278  eV     2   --> G_5  D_5       
     e(  5 -  6) =    -32.05533  eV     2   --> G_5  D_5       
     e(  7 -  8) =    -32.02654  eV     2   --> G_5  D_5       
     e(  9 - 10) =    -14.85432  eV     2   --> G_5  D_5       
     e( 11 - 12) =    -14.04699  eV     2   --> G_5  D_5       
     e( 13 - 14) =     -6.06957  eV     2   --> G_5  D_5       
     e( 15 - 16) =     -4.25421  eV     2   --> G_5  D_5       
     e( 17 - 17) =     -3.73074  eV     1   -->   ?
     e( 18 - 18) =     -3.73054  eV     1   -->   ?
     e( 19 - 20) =     -3.19526  eV     2   --> G_5  D_5       
     e( 21 - 22) =     -2.94022  eV     2   --> G_5  D_5       
     e( 23 - 24) =     -2.39274  eV     2   --> G_5  D_5       
     e( 25 - 25) =     -1.26872  eV     1   -->   ?
     e( 26 - 26) =     -1.26852  eV     1   -->   ?
     e( 27 - 27) =      0.85729  eV     1   -->   ?
     e( 28 - 28) =      0.85746  eV     1   -->   ?
     e( 29 - 30) =      1.00297  eV     2   --> G_5  D_5       
     e( 31 - 31) =      1.15300  eV     1   -->   ?
     e( 32 - 32) =      1.15312  eV     1   -->   ?
     e( 33 - 34) =      1.76881  eV     2   --> G_5  D_5       
     e( 35 - 35) =      3.44761  eV     1   -->   ?
     e( 36 - 36) =      3.44776  eV     1   -->   ?
     e( 37 - 38) =      3.67941  eV     2   --> G_5  D_5       
     e( 39 - 40) =      3.92303  eV     2   --> G_5  D_5       
     e( 41 - 42) =      4.78308  eV     2   --> G_5  D_5       

 **************************************************************************

 **************************************************************************

                    xk=(   0.00000,   0.17321,   0.00000  )

     Band symmetry, C_2v (mm2)  double point group:

     e(  1 -  2) =    -56.66150  eV     2   --> G_5  D_5       
     e(  3 -  4) =    -34.15132  eV     2   --> G_5  D_5       
     e(  5 -  6) =    -32.05320  eV     2   --> G_5  D_5       
     e(  7 -  8) =    -32.02504  eV     2   --> G_5  D_5       
     e(  9 - 10) =    -14.87978  eV     2   --> G_5  D_5       
     e( 11 - 12) =    -14.05863  eV     2   --> G_5  D_5       
     e( 13 - 14) =     -6.10129  eV     2   --> G_5  D_5       
     e( 15 - 16) =     -4.18804  eV     2   --> G_5  D_5       
     e( 17 - 17) =     -3.67506  eV     1   -->   ?
     e( 18 - 18) =     -3.67485  eV     1   -->   ?
     e( 19 - 20) =     -3.21750  eV     2   --> G_5  D_5       
     e( 21 - 22) =     -2.90317  eV     2   --> G_5  D_5       
     e( 23 - 24) =     -2.37817  eV     2   --> G_5  D_5       
     e( 25 - 25) =     -1.23644  eV     1   -->   ?
     e( 26 - 26) =     -1.23624  eV     1   -->   ?
     e( 27 - 27) =      0.88068  eV     1   -->   ?
     e( 28 - 28) =      0.88085  eV     1   -->   ?
     e( 29 - 30) =      1.00076  eV     2   --> G_5  D_5       
[...]

                    xk=(  -0.03333,   0.57735,   0.00000  )

     Band symmetry, C_s (m)     double point group:

     e(  1 -  2) =    -56.64620  eV     2   --> G_3            
     e(  1 -  2) =    -56.64620  eV     2   --> G_4            
     e(  3 -  3) =    -34.20945  eV     1   --> G_4            
     e(  4 -  4) =    -34.20661  eV     1   --> G_3            
     e(  5 -  5) =    -32.17692  eV     1   --> G_3            
     e(  6 -  6) =    -32.17234  eV     1   --> G_4            
     e(  7 -  7) =    -32.03235  eV     1   --> G_4            
     e(  8 -  8) =    -32.03170  eV     1   --> G_3            
     e(  9 -  9) =    -13.79206  eV     1   --> G_4            
     e( 10 - 10) =    -13.78605  eV     1   --> G_3            
     e( 11 - 11) =    -13.56936  eV     1   -->   ?
     e( 12 - 12) =    -13.56904  eV     1   -->   ?
     e( 13 - 13) =     -6.51820  eV     1   --> G_3            
     e( 14 - 14) =     -6.51207  eV     1   --> G_4            
     e( 15 - 15) =     -5.63026  eV     1   --> G_3            
     e( 16 - 16) =     -5.60698  eV     1   --> G_4            
     e( 17 - 17) =     -4.95637  eV     1   -->   ?
     e( 18 - 18) =     -4.95318  eV     1   -->   ?
     e( 19 - 19) =     -3.98877  eV     1   --> G_4            
     e( 20 - 20) =     -3.96420  eV     1   --> G_3            
     e( 21 - 21) =     -3.04671  eV     1   -->   ?
     e( 22 - 22) =     -3.03591  eV     1   -->   ?
     e( 23 - 23) =     -2.45720  eV     1   --> G_3            
     e( 24 - 24) =     -2.41262  eV     1   --> G_4            
     e( 25 - 25) =     -1.79090  eV     1   --> G_4            
     e( 26 - 26) =     -1.72731  eV     1   --> G_3            
     e( 27 - 27) =      0.83126  eV     1   --> G_4            
     e( 28 - 28) =      0.84334  eV     1   --> G_3            
     e( 29 - 29) =      1.23151  eV     1   --> G_3            
     e( 30 - 30) =      1.26317  eV     1   --> G_4            
     e( 31 - 31) =      2.15158  eV     1   --> G_3            
     e( 32 - 32) =      2.16537  eV     1   --> G_4            
     e( 33 - 33) =      2.64953  eV     1   --> G_3            
     e( 34 - 34) =      2.65093  eV     1   --> G_4            
     e( 35 - 35) =      3.98496  eV     1   --> G_3            
     e( 36 - 36) =      3.99447  eV     1   --> G_4            
     e( 37 - 37) =      5.64138  eV     1   --> G_4            
     e( 38 - 38) =      5.65054  eV     1   --> G_3            
     e( 39 - 39) =      5.91109  eV     1   --> G_3            
     e( 40 - 40) =      5.91934  eV     1   --> G_4            
     e( 41 - 41) =      6.55944  eV     1   --> G_4            
     e( 42 - 42) =      6.56372  eV     1   --> G_3            

 **************************************************************************

 **************************************************************************

                    xk=(  -0.02778,   0.57735,   0.00000  )

     Band symmetry, C_s (m)     double point group:

     e(  1 -  2) =    -56.64624  eV     2   --> G_3            
     e(  1 -  2) =    -56.64624  eV     2   --> G_4            
     e(  3 -  3) =    -34.20918  eV     1   --> G_4            
     e(  4 -  4) =    -34.20681  eV     1   --> G_3            
     e(  5 -  5) =    -32.17658  eV     1   --> G_3            
     e(  6 -  6) =    -32.17277  eV     1   --> G_4            
     e(  7 -  7) =    -32.03210  eV     1   --> G_4            
     e(  8 -  8) =    -32.03156  eV     1   --> G_3            
     e(  9 -  9) =    -13.79270  eV     1   --> G_4            
     e( 10 - 10) =    -13.78768  eV     1   --> G_3            
     e( 11 - 11) =    -13.57000  eV     1   -->   ?
     e( 12 - 12) =    -13.56973  eV     1   -->   ?
     e( 13 - 13) =     -6.52200  eV     1   --> G_3            
     e( 14 - 14) =     -6.51690  eV     1   --> G_4            
     e( 15 - 15) =     -5.62692  eV     1   --> G_3            
     e( 16 - 16) =     -5.60751  eV     1   --> G_4            
     e( 17 - 17) =     -4.95722  eV     1   -->   ?
     e( 18 - 18) =     -4.95456  eV     1   -->   ?
     e( 19 - 19) =     -3.98371  eV     1   --> G_4            
     e( 20 - 20) =     -3.96326  eV     1   --> G_3            
     e( 21 - 21) =     -3.04549  eV     1   -->   ?
     e( 22 - 22) =     -3.03637  eV     1   -->   ?
     e( 23 - 23) =     -2.42913  eV     1   --> G_3            
     e( 24 - 24) =     -2.38914  eV     1   --> G_4            
     e( 25 - 25) =     -1.79977  eV     1   --> G_4            
     e( 26 - 26) =     -1.74394  eV     1   --> G_3            
     e( 27 - 27) =      0.83093  eV     1   --> G_4            
     e( 28 - 28) =      0.84089  eV     1   --> G_3            
     e( 29 - 29) =      1.23359  eV     1   --> G_3            
     e( 30 - 30) =      1.25992  eV     1   --> G_4            
     e( 31 - 31) =      2.14792  eV     1   --> G_3            
     e( 32 - 32) =      2.15942  eV     1   --> G_4            
     e( 33 - 33) =      2.66158  eV     1   --> G_3            
     e( 34 - 34) =      2.66276  eV     1   --> G_4            
     e( 35 - 35) =      3.97910  eV     1   --> G_3            
     e( 36 - 36) =      3.98708  eV     1   --> G_4            
     e( 37 - 37) =      5.62804  eV     1   --> G_4            
     e( 38 - 38) =      5.63573  eV     1   --> G_3            
     e( 39 - 39) =      5.88895  eV     1   --> G_3            
     e( 40 - 40) =      5.89580  eV     1   --> G_4            
     e( 41 - 41) =      6.55608  eV     1   --> G_4            
     e( 42 - 42) =      6.55962  eV     1   --> G_3            

 **************************************************************************

 **************************************************************************

                    xk=(  -0.02222,   0.57735,   0.00000  )

     Band symmetry, C_s (m)     double point group:

     e(  1 -  2) =    -56.64626  eV     2   --> G_3            
     e(  1 -  2) =    -56.64626  eV     2   --> G_4            
     e(  3 -  3) =    -34.20891  eV     1   --> G_4            
     e(  4 -  4) =    -34.20701  eV     1   --> G_3            
     e(  5 -  5) =    -32.17623  eV     1   --> G_3            
     e(  6 -  6) =    -32.17318  eV     1   --> G_4            
     e(  7 -  7) =    -32.03188  eV     1   --> G_4            
     e(  8 -  8) =    -32.03145  eV     1   --> G_3            
     e(  9 -  9) =    -13.79313  eV     1   --> G_4            
     e( 10 - 10) =    -13.78912  eV     1   --> G_3            
     e( 11 - 11) =    -13.57052  eV     1   -->   ?
     e( 12 - 12) =    -13.57031  eV     1   -->   ?
     e( 13 - 13) =     -6.52502  eV     1   --> G_3            
     e( 14 - 14) =     -6.52094  eV     1   --> G_4            
     e( 15 - 15) =     -5.62384  eV     1   --> G_3            
     e( 16 - 16) =     -5.60830  eV     1   --> G_4            
     e( 17 - 17) =     -4.95786  eV     1   -->   ?
     e( 18 - 18) =     -4.95574  eV     1   -->   ?
     e( 19 - 19) =     -3.97916  eV     1   --> G_4            
     e( 20 - 20) =     -3.96281  eV     1   --> G_3            
     e( 21 - 21) =     -3.04436  eV     1   -->   ?
     e( 22 - 22) =     -3.03700  eV     1   -->   ?
     e( 23 - 23) =     -2.40420  eV     1   --> G_3            
     e( 24 - 24) =     -2.37001  eV     1   --> G_4            
     e( 25 - 25) =     -1.80654  eV     1   --> G_4            
     e( 26 - 26) =     -1.75967  eV     1   --> G_3            
     e( 27 - 27) =      0.83074  eV     1   --> G_4            
     e( 28 - 28) =      0.83864  eV     1   --> G_3            
     e( 29 - 29) =      1.23583  eV     1   --> G_3            
     e( 30 - 30) =      1.25686  eV     1   --> G_4            
     e( 31 - 31) =      2.14508  eV     1   --> G_3            
     e( 32 - 32) =      2.15428  eV     1   --> G_4            
     e( 33 - 33) =      2.67169  eV     1   --> G_3            
     e( 34 - 34) =      2.67265  eV     1   --> G_4            
     e( 35 - 35) =      3.97441  eV     1   --> G_3            
     e( 36 - 36) =      3.98083  eV     1   --> G_4            
     e( 37 - 37) =      5.61724  eV     1   --> G_4            
     e( 38 - 38) =      5.62343  eV     1   --> G_3            
     e( 39 - 39) =      5.87075  eV     1   --> G_3            
     e( 40 - 40) =      5.87620  eV     1   --> G_4            
     e( 41 - 41) =      6.55343  eV     1   --> G_4            
     e( 42 - 42) =      6.55624  eV     1   --> G_3            

 **************************************************************************

 **************************************************************************

                    xk=(  -0.01667,   0.57735,   0.00000  )

     Band symmetry, C_s (m)     double point group:

     e(  1 -  2) =    -56.64624  eV     2   --> G_3            
     e(  1 -  2) =    -56.64624  eV     2   --> G_4            
     e(  3 -  3) =    -34.20864  eV     1   --> G_4            
     e(  4 -  4) =    -34.20722  eV     1   --> G_3            
     e(  5 -  5) =    -32.17586  eV     1   --> G_3            
     e(  6 -  6) =    -32.17358  eV     1   --> G_4            
     e(  7 -  7) =    -32.03170  eV     1   --> G_4            
     e(  8 -  8) =    -32.03138  eV     1   --> G_3            
     e(  9 -  9) =    -13.79336  eV     1   --> G_4            
     e( 10 - 10) =    -13.79034  eV     1   --> G_3            
     e( 11 - 11) =    -13.57092  eV     1   -->   ?
     e( 12 - 12) =    -13.57076  eV     1   -->   ?
     e( 13 - 13) =     -6.52725  eV     1   --> G_3            
     e( 14 - 14) =     -6.52420  eV     1   --> G_4            
     e( 15 - 15) =     -5.62101  eV     1   --> G_3            
     e( 16 - 16) =     -5.60935  eV     1   --> G_4            
     e( 17 - 17) =     -4.95831  eV     1   -->   ?
     e( 18 - 18) =     -4.95672  eV     1   -->   ?
     e( 19 - 19) =     -3.97514  eV     1   --> G_4            
     e( 20 - 20) =     -3.96289  eV     1   --> G_3            
     e( 21 - 21) =     -3.04331  eV     1   -->   ?
     e( 22 - 22) =     -3.03775  eV     1   -->   ?
     e( 23 - 23) =     -2.38287  eV     1   --> G_3            
     e( 24 - 24) =     -2.35575  eV     1   --> G_4            
     e( 25 - 25) =     -1.81076  eV     1   --> G_4            
     e( 26 - 26) =     -1.77413  eV     1   --> G_3            
     e( 27 - 27) =      0.83077  eV     1   --> G_4            
     e( 28 - 28) =      0.83665  eV     1   --> G_3            
     e( 29 - 29) =      1.23821  eV     1   --> G_3            
     e( 30 - 30) =      1.25395  eV     1   --> G_4            
     e( 31 - 31) =      2.14309  eV     1   --> G_3            
     e( 32 - 32) =      2.14999  eV     1   --> G_4            
     e( 33 - 33) =      2.67972  eV     1   --> G_3            
     e( 34 - 34) =      2.68045  eV     1   --> G_4            
     e( 35 - 35) =      3.97091  eV     1   --> G_3            
     e( 36 - 36) =      3.97574  eV     1   --> G_4            
     e( 37 - 37) =      5.60898  eV     1   --> G_4            
     e( 38 - 38) =      5.61365  eV     1   --> G_3            
     e( 39 - 39) =      5.85659  eV     1   --> G_3            
     e( 40 - 40) =      5.86068  eV     1   --> G_4            
     e( 41 - 41) =      6.55146  eV     1   --> G_4            
     e( 42 - 42) =      6.55355  eV     1   --> G_3            

 **************************************************************************

 **************************************************************************

                    xk=(  -0.01111,   0.57735,   0.00000  )

     Band symmetry, C_s (m)     double point group:

     e(  1 -  2) =    -56.64626  eV     2   --> G_3            
     e(  1 -  2) =    -56.64626  eV     2   --> G_4            
     e(  3 -  3) =    -34.20839  eV     1   --> G_4            
     e(  4 -  4) =    -34.20744  eV     1   --> G_3            
     e(  5 -  5) =    -32.17550  eV     1   --> G_3            
     e(  6 -  6) =    -32.17398  eV     1   --> G_4            
     e(  7 -  7) =    -32.03156  eV     1   --> G_4            
     e(  8 -  8) =    -32.03134  eV     1   --> G_3            
     e(  9 -  9) =    -13.79338  eV     1   --> G_4            
     e( 10 - 10) =    -13.79137  eV     1   --> G_3            
     e( 11 - 11) =    -13.57120  eV     1   -->   ?
     e( 12 - 12) =    -13.57109  eV     1   -->   ?
     e( 13 - 13) =     -6.52871  eV     1   --> G_3            
     e( 14 - 14) =     -6.52668  eV     1   --> G_4            
     e( 15 - 15) =     -5.61844  eV     1   --> G_3            
     e( 16 - 16) =     -5.61066  eV     1   --> G_4            
     e( 17 - 17) =     -4.95855  eV     1   -->   ?
     e( 18 - 18) =     -4.95749  eV     1   -->   ?
     e( 19 - 19) =     -3.97167  eV     1   --> G_4            
     e( 20 - 20) =     -3.96351  eV     1   --> G_3            
     e( 21 - 21) =     -3.04231  eV     1   -->   ?
     e( 22 - 22) =     -3.03858  eV     1   -->   ?
     e( 23 - 23) =     -2.36564  eV     1   --> G_3            
     e( 24 - 24) =     -2.34677  eV     1   --> G_4            
     e( 25 - 25) =     -1.81207  eV     1   --> G_4            
     e( 26 - 26) =     -1.78686  eV     1   --> G_3            
     e( 27 - 27) =      0.83102  eV     1   --> G_4            
     e( 28 - 28) =      0.83492  eV     1   --> G_3            
     e( 29 - 29) =      1.24065  eV     1   --> G_3            
     e( 30 - 30) =      1.25114  eV     1   --> G_4            
     e( 31 - 31) =      2.14198  eV     1   --> G_3            
     e( 32 - 32) =      2.14658  eV     1   --> G_4            
     e( 33 - 33) =      2.68557  eV     1   --> G_3            
     e( 34 - 34) =      2.68606  eV     1   --> G_4            
     e( 35 - 35) =      3.96862  eV     1   --> G_3            
     e( 36 - 36) =      3.97186  eV     1   --> G_4            
     e( 37 - 37) =      5.60330  eV     1   --> G_4            
     e( 38 - 38) =      5.60642  eV     1   --> G_3            
     e( 39 - 39) =      5.84660  eV     1   --> G_3            
     e( 40 - 40) =      5.84932  eV     1   --> G_4            
     e( 41 - 41) =      6.55016  eV     1   --> G_4            
     e( 42 - 42) =      6.55155  eV     1   --> G_3            

 **************************************************************************

 **************************************************************************

                    xk=(  -0.00556,   0.57735,   0.00000  )

     Band symmetry, C_s (m)     double point group:

     e(  1 -  2) =    -56.64627  eV     2   --> G_3            
     e(  1 -  2) =    -56.64627  eV     2   --> G_4            
     e(  3 -  3) =    -34.20814  eV     1   --> G_4            
     e(  4 -  4) =    -34.20766  eV     1   --> G_3            
     e(  5 -  5) =    -32.17513  eV     1   --> G_3            
     e(  6 -  6) =    -32.17437  eV     1   --> G_4            
     e(  7 -  7) =    -32.03145  eV     1   --> G_4            
     e(  8 -  8) =    -32.03134  eV     1   --> G_3            
     e(  9 -  9) =    -13.79319  eV     1   --> G_4            
     e( 10 - 10) =    -13.79218  eV     1   --> G_3            
     e( 11 - 12) =    -13.57136  eV     2   --> G_3            
     e( 11 - 12) =    -13.57136  eV     2   --> G_4            
     e( 13 - 13) =     -6.52938  eV     1   --> G_3            
     e( 14 - 14) =     -6.52837  eV     1   --> G_4            
     e( 15 - 15) =     -5.61611  eV     1   --> G_3            
     e( 16 - 16) =     -5.61222  eV     1   --> G_4            
     e( 17 - 17) =     -4.95860  eV     1   -->   ?
     e( 18 - 18) =     -4.95807  eV     1   -->   ?
     e( 19 - 19) =     -3.96877  eV     1   --> G_4            
     e( 20 - 20) =     -3.96469  eV     1   --> G_3            
     e( 21 - 21) =     -3.04133  eV     1   -->   ?
     e( 22 - 22) =     -3.03946  eV     1   -->   ?
     e( 23 - 23) =     -2.35302  eV     1   --> G_3            
     e( 24 - 24) =     -2.34332  eV     1   --> G_4            
     e( 25 - 25) =     -1.81027  eV     1   --> G_4            
     e( 26 - 26) =     -1.79741  eV     1   --> G_3            
     e( 27 - 27) =      0.83154  eV     1   --> G_4            
     e( 28 - 28) =      0.83348  eV     1   --> G_3            
     e( 29 - 29) =      1.24317  eV     1   --> G_3            
     e( 30 - 30) =      1.24841  eV     1   --> G_4            
     e( 31 - 31) =      2.14177  eV     1   --> G_3            
     e( 32 - 32) =      2.14407  eV     1   --> G_4            
     e( 33 - 33) =      2.68917  eV     1   --> G_3            
     e( 34 - 34) =      2.68941  eV     1   --> G_4            
     e( 35 - 35) =      3.96757  eV     1   --> G_3            
     e( 36 - 36) =      3.96919  eV     1   --> G_4            
     e( 37 - 37) =      5.60020  eV     1   --> G_4            
     e( 38 - 38) =      5.60176  eV     1   --> G_3            
     e( 39 - 39) =      5.84084  eV     1   --> G_3            
     e( 40 - 40) =      5.84220  eV     1   --> G_4            
     e( 41 - 41) =      6.54952  eV     1   --> G_4            
     e( 42 - 42) =      6.55021  eV     1   --> G_3            

 **************************************************************************

 **************************************************************************

                    xk=(   0.00000,   0.57735,   0.00000  )

     double point group C_2v (mm2) 
     there are  5 classes and  1 irreducible representations
     the character table:

       E     -E     C2    s_v   s_v'
                   -C2   -s_v  -s_v'
G_5    2.00 -2.00  0.00  0.00  0.00

     the symmetry operations in each class and the name of the first element:

     E             1
                                                                 
     -E           -1
                                                                 
      C2  -C2      2   -2
                                                                 
      s_v -s_v     3   -3
                                                                 
      s_v'-s_v'    4   -4
                                                                 

     Band symmetry, C_2v (mm2)  double point group:

     e(  1 -  2) =    -56.64627  eV     2   --> G_5  D_5       
     e(  3 -  4) =    -34.20790  eV     2   --> G_5  D_5       
     e(  5 -  6) =    -32.17476  eV     2   --> G_5  D_5       
     e(  7 -  8) =    -32.03138  eV     2   --> G_5  D_5       
     e(  9 - 10) =    -13.79279  eV     2   --> G_5  D_5       
     e( 11 - 12) =    -13.57139  eV     2   --> G_5  D_5       
     e( 13 - 14) =     -6.52927  eV     2   --> G_5  D_5       
     e( 15 - 16) =     -5.61404  eV     2   --> G_5  D_5       
     e( 17 - 18) =     -4.95844  eV     2   --> G_5  D_5       
     e( 19 - 20) =     -3.96644  eV     2   --> G_5  D_5       
     e( 21 - 22) =     -3.04038  eV     2   --> G_5  D_5       
     e( 23 - 24) =     -2.34546  eV     2   --> G_5  D_5       
     e( 25 - 26) =     -1.80533  eV     2   --> G_5  D_5       
     e( 27 - 28) =      0.83235  eV     2   --> G_5  D_5       
     e( 29 - 30) =      1.24576  eV     2   --> G_5  D_5       
     e( 31 - 32) =      2.14246  eV     2   --> G_5  D_5       
     e( 33 - 34) =      2.69045  eV     2   --> G_5  D_5       
     e( 35 - 36) =      3.96776  eV     2   --> G_5  D_5       
     e( 37 - 38) =      5.59969  eV     2   --> G_5  D_5       
     e( 39 - 40) =      5.83937  eV     2   --> G_5  D_5       
     e( 41 - 42) =      6.54954  eV     2   --> G_5  D_5       

 **************************************************************************
 
     BANDS        :   3m46.53s CPU   5m 0.86s WALL

 
   This run was terminated on:  20:47:17   7Sep2020            

=------------------------------------------------------------------------------=
   JOB DONE.
=------------------------------------------------------------------------------=
