
     Program BANDS v.6.6 starts on  3Nov2020 at 23: 7:59 

     This program is part of the open-source Quantum ESPRESSO suite
     for quantum simulation of materials; please cite
         "P. Giannozzi et al., J. Phys.:Condens. Matter 21 395502 (2009);
         "P. Giannozzi et al., J. Phys.:Condens. Matter 29 465901 (2017);
          URL http://www.quantum-espresso.org", 
     in publications or presentations arising from this work. More details at
     http://www.quantum-espresso.org/quote

     Parallel version (MPI), running on     8 processors

     MPI processes distributed on     1 nodes
     R & G space division:  proc/nbgrp/npool/nimage =       8
     Fft bands division:     nmany     =       1

     Reading xml data from directory:

     ./outdir/Li.save/
     Message from routine readpp:
     file ./outdir/Li.save/li_pbe_v1.4.uspp.F.UPF not found

     IMPORTANT: XC functional enforced from input :
     Exchange-correlation= PBE
                           (   1   4   3   4   0   0   0)
     Any further DFT definition will be discarded
     Please, verify this is what you really want

 
     Parallelization info
     --------------------
     sticks:   dense  smooth     PW     G-vecs:    dense   smooth      PW
     Min         272     121     35                 8038     2383     387
     Max         273     122     36                 8041     2385     390
     Sum        2179     969    283                64315    19069    3103
 
     Reading collected, re-writing distributed wavefunctions
     high-symmetry point:  0.0000 0.0000 0.0000   x coordinate   0.0000
     high-symmetry point:  0.5000 0.5000 0.0000   x coordinate   0.7071
     high-symmetry point:  0.5000 0.5000 0.5000   x coordinate   1.2071
     high-symmetry point:  0.0000 0.0000 0.0000   x coordinate   2.0731
     high-symmetry point:  0.0000 1.0000 0.0000   x coordinate   3.0731
     high-symmetry point:  0.5000 0.5000 0.0000   x coordinate   3.7802

     Plottable bands (eV) written to file Li.bands.dat.gnu
     Bands written to file Li.bands.dat

 **************************************************************************

                    xk=(   0.00000,   0.00000,   0.00000  )

     point group O_h (m-3m) 
     there are 10 classes
     the character table:

       E     8C3   3C2   6C4   6C2'  i     8S6   3s_h  6S4   6s_d 
A_1g   1.00  1.00  1.00  1.00  1.00  1.00  1.00  1.00  1.00  1.00
A_2g   1.00  1.00  1.00 -1.00 -1.00  1.00  1.00  1.00 -1.00 -1.00
E_g    2.00 -1.00  2.00  0.00  0.00  2.00 -1.00  2.00  0.00  0.00
T_1g   3.00  0.00 -1.00  1.00 -1.00  3.00  0.00 -1.00  1.00 -1.00
T_2g   3.00  0.00 -1.00 -1.00  1.00  3.00  0.00 -1.00 -1.00  1.00
A_1u   1.00  1.00  1.00  1.00  1.00 -1.00 -1.00 -1.00 -1.00 -1.00
A_2u   1.00  1.00  1.00 -1.00 -1.00 -1.00 -1.00 -1.00  1.00  1.00
E_u    2.00 -1.00  2.00  0.00  0.00 -2.00  1.00 -2.00  0.00  0.00
T_1u   3.00  0.00 -1.00  1.00 -1.00 -3.00  0.00  1.00 -1.00  1.00
T_2u   3.00  0.00 -1.00 -1.00  1.00 -3.00  0.00  1.00  1.00 -1.00

     the symmetry operations in each class and the name of the first element:

     E        1
                                                                 
     8C3     17   19   20   18   24   21   22   23
                                                                 
     3C2      2    4    3
                                                                 
     6C4      7    8   15   16   12   11
                                                                 
     6C2'     5    6   14   13   10    9
                                                                 
     i       25
                                                                 
     8S6     41   43   44   42   48   45   46   47
                                                                 
     3s_h    26   28   27
                                                                 
     6S4     31   32   39   40   36   35
                                                                 
     6s_d    29   30   38   37   34   33
                                                                 

     Band symmetry, O_h (m-3m)  point group:

     e(  1 -  1) =    -45.53992  eV     1   --> A_1g G_1   G_1+
     e(  2 -  2) =     -2.61782  eV     1   --> A_1g G_1   G_1+
     e(  3 -  4) =     15.65229  eV     2   -->   ?

 **************************************************************************

 **************************************************************************

                    xk=(   0.02500,   0.02500,   0.00000  )

     point group C_2v (mm2) 
     there are  4 classes
     the character table:

       E     C2    s_v   s_v' 
A_1    1.00  1.00  1.00  1.00
A_2    1.00  1.00 -1.00 -1.00
B_1    1.00 -1.00  1.00 -1.00
B_2    1.00 -1.00 -1.00  1.00

     the symmetry operations in each class and the name of the first element:

     E        1
                                                                 
     C2       2
                                                                 
     s_v      3
                                                                 
     s_v'     4
                                                                 

     Band symmetry, C_2v (mm2)  point group:

     e(  1 -  1) =    -45.53980  eV     1   --> A_1  D_1  S_1  
     e(  2 -  2) =     -2.60595  eV     1   --> A_1  D_1  S_1  
     e(  3 -  3) =     15.57317  eV     1   -->   ?
     e(  4 -  4) =     15.58745  eV     1   -->   ?

 **************************************************************************

 **************************************************************************

                    xk=(   0.05000,   0.05000,   0.00000  )

     Band symmetry, C_2v (mm2)  point group:

     e(  1 -  1) =    -45.53943  eV     1   --> A_1  D_1  S_1  
     e(  2 -  2) =     -2.57032  eV     1   --> A_1  D_1  S_1  
     e(  3 -  3) =     15.33090  eV     1   --> A_1  D_1  S_1  
     e(  4 -  4) =     15.39958  eV     1   --> B_2  D_4  S_4  

 **************************************************************************

 **************************************************************************

                    xk=(   0.07500,   0.07500,   0.00000  )

     Band symmetry, C_2v (mm2)  point group:

     e(  1 -  1) =    -45.53884  eV     1   --> A_1  D_1  S_1  
     e(  2 -  2) =     -2.51093  eV     1   --> A_1  D_1  S_1  
     e(  3 -  3) =     14.92079  eV     1   --> A_1  D_1  S_1  
     e(  4 -  4) =     15.12898  eV     1   --> B_2  D_4  S_4  

 **************************************************************************

 **************************************************************************

                    xk=(   0.10000,   0.10000,   0.00000  )

     Band symmetry, C_2v (mm2)  point group:

     e(  1 -  1) =    -45.53802  eV     1   --> A_1  D_1  S_1  
     e(  2 -  2) =     -2.42774  eV     1   --> A_1  D_1  S_1  
     e(  3 -  3) =     14.35549  eV     1   --> A_1  D_1  S_1  
     e(  4 -  4) =     14.80817  eV     1   --> B_2  D_4  S_4  

 **************************************************************************

 **************************************************************************

                    xk=(   0.12500,   0.12500,   0.00000  )

     Band symmetry, C_2v (mm2)  point group:

     e(  1 -  1) =    -45.53701  eV     1   --> A_1  D_1  S_1  
     e(  2 -  2) =     -2.32074  eV     1   --> A_1  D_1  S_1  
     e(  3 -  3) =     13.67106  eV     1   --> A_1  D_1  S_1  
     e(  4 -  4) =     14.46353  eV     1   --> B_2  D_4  S_4  

 **************************************************************************

 **************************************************************************

                    xk=(   0.15000,   0.15000,   0.00000  )

     Band symmetry, C_2v (mm2)  point group:

     e(  1 -  1) =    -45.53582  eV     1   --> A_1  D_1  S_1  
     e(  2 -  2) =     -2.18991  eV     1   --> A_1  D_1  S_1  
     e(  3 -  3) =     12.91167  eV     1   --> A_1  D_1  S_1  
     e(  4 -  4) =     14.11286  eV     1   --> B_2  D_4  S_4  

 **************************************************************************

 **************************************************************************

                    xk=(   0.17500,   0.17500,   0.00000  )

     Band symmetry, C_2v (mm2)  point group:

     e(  1 -  1) =    -45.53449  eV     1   --> A_1  D_1  S_1  
     e(  2 -  2) =     -2.03529  eV     1   --> A_1  D_1  S_1  
     e(  3 -  3) =     12.11405  eV     1   --> A_1  D_1  S_1  
     e(  4 -  4) =     13.76775  eV     1   --> B_2  D_4  S_4  

 **************************************************************************

 **************************************************************************

                    xk=(   0.20000,   0.20000,   0.00000  )

     Band symmetry, C_2v (mm2)  point group:

     e(  1 -  1) =    -45.53305  eV     1   --> A_1  D_1  S_1  
     e(  2 -  2) =     -1.85694  eV     1   --> A_1  D_1  S_1  
     e(  3 -  3) =     11.30355  eV     1   --> A_1  D_1  S_1  
     e(  4 -  4) =     13.43576  eV     1   --> B_2  D_4  S_4  

 **************************************************************************

 **************************************************************************

                    xk=(   0.22500,   0.22500,   0.00000  )

     Band symmetry, C_2v (mm2)  point group:

     e(  1 -  1) =    -45.53153  eV     1   --> A_1  D_1  S_1  
     e(  2 -  2) =     -1.65506  eV     1   --> A_1  D_1  S_1  
     e(  3 -  3) =     10.49655  eV     1   --> A_1  D_1  S_1  
     e(  4 -  4) =     13.12187  eV     1   --> B_2  D_4  S_4  

 **************************************************************************

 **************************************************************************

                    xk=(   0.25000,   0.25000,   0.00000  )

     Band symmetry, C_2v (mm2)  point group:

     e(  1 -  1) =    -45.52997  eV     1   --> A_1  D_1  S_1  
     e(  2 -  2) =     -1.42998  eV     1   --> A_1  D_1  S_1  
     e(  3 -  3) =      9.70367  eV     1   --> A_1  D_1  S_1  
     e(  4 -  4) =     12.82947  eV     1   --> B_2  D_4  S_4  

 **************************************************************************

 **************************************************************************

                    xk=(   0.27500,   0.27500,   0.00000  )

     Band symmetry, C_2v (mm2)  point group:

     e(  1 -  1) =    -45.52842  eV     1   --> A_1  D_1  S_1  
     e(  2 -  2) =     -1.18229  eV     1   --> A_1  D_1  S_1  
     e(  3 -  3) =      8.93211  eV     1   --> A_1  D_1  S_1  
     e(  4 -  4) =     12.56090  eV     1   --> B_2  D_4  S_4  

 **************************************************************************

 **************************************************************************

                    xk=(   0.30000,   0.30000,   0.00000  )

     Band symmetry, C_2v (mm2)  point group:

     e(  1 -  1) =    -45.52690  eV     1   --> A_1  D_1  S_1  
     e(  2 -  2) =     -0.91294  eV     1   --> A_1  D_1  S_1  
     e(  3 -  3) =      8.18726  eV     1   --> A_1  D_1  S_1  
     e(  4 -  4) =     12.31781  eV     1   --> B_2  D_4  S_4  

 **************************************************************************

 **************************************************************************

                    xk=(   0.32500,   0.32500,   0.00000  )

     Band symmetry, C_2v (mm2)  point group:

     e(  1 -  1) =    -45.52546  eV     1   --> A_1  D_1  S_1  
     e(  2 -  2) =     -0.62355  eV     1   --> A_1  D_1  S_1  
     e(  3 -  3) =      7.47374  eV     1   --> A_1  D_1  S_1  
     e(  4 -  4) =     12.10141  eV     1   --> B_2  D_4  S_4  

 **************************************************************************

 **************************************************************************

                    xk=(   0.35000,   0.35000,   0.00000  )

     Band symmetry, C_2v (mm2)  point group:

     e(  1 -  1) =    -45.52413  eV     1   --> A_1  D_1  S_1  
     e(  2 -  2) =     -0.31679  eV     1   --> A_1  D_1  S_1  
     e(  3 -  3) =      6.79635  eV     1   --> A_1  D_1  S_1  
     e(  4 -  4) =     11.91255  eV     1   --> B_2  D_4  S_4  

 **************************************************************************

 **************************************************************************

                    xk=(   0.37500,   0.37500,   0.00000  )

     Band symmetry, C_2v (mm2)  point group:

     e(  1 -  1) =    -45.52294  eV     1   --> A_1  D_1  S_1  
     e(  2 -  2) =      0.00284  eV     1   --> A_1  D_1  S_1  
     e(  3 -  3) =      6.16110  eV     1   --> A_1  D_1  S_1  
     e(  4 -  4) =     11.75189  eV     1   --> B_2  D_4  S_4  

 **************************************************************************

 **************************************************************************

                    xk=(   0.40000,   0.40000,   0.00000  )

     Band symmetry, C_2v (mm2)  point group:

     e(  1 -  1) =    -45.52193  eV     1   --> A_1  D_1  S_1  
     e(  2 -  2) =      0.32750  eV     1   --> A_1  D_1  S_1  
     e(  3 -  3) =      5.57695  eV     1   --> A_1  D_1  S_1  
     e(  4 -  4) =     11.61989  eV     1   --> B_2  D_4  S_4  

 **************************************************************************

 **************************************************************************

                    xk=(   0.42500,   0.42500,   0.00000  )

     Band symmetry, C_2v (mm2)  point group:

     e(  1 -  1) =    -45.52111  eV     1   --> A_1  D_1  S_1  
     e(  2 -  2) =      0.64325  eV     1   --> A_1  D_1  S_1  
     e(  3 -  3) =      5.05864  eV     1   --> A_1  D_1  S_1  
     e(  4 -  4) =     11.51691  eV     1   --> B_2  D_4  S_4  

 **************************************************************************

 **************************************************************************

                    xk=(   0.45000,   0.45000,   0.00000  )

     Band symmetry, C_2v (mm2)  point group:

     e(  1 -  1) =    -45.52052  eV     1   --> A_1  D_1  S_1  
     e(  2 -  2) =      0.92503  eV     1   --> A_1  D_1  S_1  
     e(  3 -  3) =      4.63180  eV     1   --> A_1  D_1  S_1  
     e(  4 -  4) =     11.44319  eV     1   --> B_2  D_4  S_4  

 **************************************************************************

 **************************************************************************

                    xk=(   0.47500,   0.47500,   0.00000  )

     Band symmetry, C_2v (mm2)  point group:

     e(  1 -  1) =    -45.52015  eV     1   --> A_1  D_1  S_1  
     e(  2 -  2) =      1.13108  eV     1   --> A_1  D_1  S_1  
     e(  3 -  3) =      4.33856  eV     1   --> A_1  D_1  S_1  
     e(  4 -  4) =     11.39890  eV     1   --> B_2  D_4  S_4  

 **************************************************************************

 **************************************************************************

                    xk=(   0.50000,   0.50000,   0.00000  )

     point group D_2h (mmm) 
     there are  8 classes
     the character table:

       E     C2    C2'   C2''  i     s_v   s_v'  s_v''
A_g    1.00  1.00  1.00  1.00  1.00  1.00  1.00  1.00
B_1g   1.00  1.00 -1.00 -1.00  1.00  1.00 -1.00 -1.00
B_2g   1.00 -1.00  1.00 -1.00  1.00 -1.00  1.00 -1.00
B_3g   1.00 -1.00 -1.00  1.00  1.00 -1.00 -1.00  1.00
A_u    1.00  1.00  1.00  1.00 -1.00 -1.00 -1.00 -1.00
B_1u   1.00  1.00 -1.00 -1.00 -1.00 -1.00  1.00  1.00
B_2u   1.00 -1.00  1.00 -1.00 -1.00  1.00 -1.00  1.00
B_3u   1.00 -1.00 -1.00  1.00 -1.00  1.00  1.00 -1.00

     the symmetry operations in each class and the name of the first element:

     E        1
                                                                 
     C2       2
                                                                 
     C2'      4
                                                                 
     C2''     3
                                                                 
     i        5
                                                                 
     s_v      6
                                                                 
     s_v'     8
                                                                 
     s_v''    7
                                                                 

     Band symmetry, D_2h (mmm)  point group:

     e(  1 -  1) =    -45.52003  eV     1   --> A_g            
     e(  2 -  2) =      1.20887  eV     1   --> B_3u           
     e(  3 -  3) =      4.23168  eV     1   --> A_g            
     e(  4 -  4) =     11.38412  eV     1   --> B_1u           

 **************************************************************************

 **************************************************************************

                    xk=(   0.50000,   0.50000,   0.02500  )

     point group C_2v (mm2) 
     there are  4 classes
     the character table:

       E     C2    s_v   s_v' 
A_1    1.00  1.00  1.00  1.00
A_2    1.00  1.00 -1.00 -1.00
B_1    1.00 -1.00  1.00 -1.00
B_2    1.00 -1.00 -1.00  1.00

     the symmetry operations in each class and the name of the first element:

     E        1
                                                                 
     C2       2
                                                                 
     s_v      3
                                                                 
     s_v'     4
                                                                 

     Band symmetry, C_2v (mm2)  point group:

     e(  1 -  1) =    -45.52002  eV     1   --> A_1  D_1  S_1  
     e(  2 -  2) =      1.21677  eV     1   --> B_2  D_4  S_4  
     e(  3 -  3) =      4.23242  eV     1   --> A_1  D_1  S_1  
     e(  4 -  4) =     11.36628  eV     1   --> A_1  D_1  S_1  

 **************************************************************************

 **************************************************************************

                    xk=(   0.50000,   0.50000,   0.05000  )

     Band symmetry, C_2v (mm2)  point group:

     e(  1 -  1) =    -45.51999  eV     1   --> A_1  D_1  S_1  
     e(  2 -  2) =      1.24048  eV     1   --> B_2  D_4  S_4  
     e(  3 -  3) =      4.23461  eV     1   --> A_1  D_1  S_1  
     e(  4 -  4) =     11.31405  eV     1   --> A_1  D_1  S_1  

 **************************************************************************

 **************************************************************************

                    xk=(   0.50000,   0.50000,   0.07500  )

     Band symmetry, C_2v (mm2)  point group:

     e(  1 -  1) =    -45.51995  eV     1   --> A_1  D_1  S_1  
     e(  2 -  2) =      1.28000  eV     1   --> B_2  D_4  S_4  
     e(  3 -  3) =      4.23822  eV     1   --> A_1  D_1  S_1  
     e(  4 -  4) =     11.23103  eV     1   --> A_1  D_1  S_1  

 **************************************************************************

 **************************************************************************

                    xk=(   0.50000,   0.50000,   0.10000  )

     Band symmetry, C_2v (mm2)  point group:

     e(  1 -  1) =    -45.51988  eV     1   --> A_1  D_1  S_1  
     e(  2 -  2) =      1.33532  eV     1   --> B_2  D_4  S_4  
     e(  3 -  3) =      4.24317  eV     1   --> A_1  D_1  S_1  
     e(  4 -  4) =     11.12241  eV     1   --> A_1  D_1  S_1  

 **************************************************************************

 **************************************************************************

                    xk=(   0.50000,   0.50000,   0.12500  )

     Band symmetry, C_2v (mm2)  point group:

     e(  1 -  1) =    -45.51981  eV     1   --> A_1  D_1  S_1  
     e(  2 -  2) =      1.40644  eV     1   --> B_2  D_4  S_4  
     e(  3 -  3) =      4.24938  eV     1   --> A_1  D_1  S_1  
     e(  4 -  4) =     10.74106  eV     1   --> B_1  D_3  S_3  

 **************************************************************************

 **************************************************************************

                    xk=(   0.50000,   0.50000,   0.15000  )

     Band symmetry, C_2v (mm2)  point group:

     e(  1 -  1) =    -45.51972  eV     1   --> A_1  D_1  S_1  
     e(  2 -  2) =      1.49336  eV     1   --> B_2  D_4  S_4  
     e(  3 -  3) =      4.25671  eV     1   --> A_1  D_1  S_1  
     e(  4 -  4) =     10.22505  eV     1   --> B_1  D_3  S_3  

 **************************************************************************

 **************************************************************************

                    xk=(   0.50000,   0.50000,   0.17500  )

     Band symmetry, C_2v (mm2)  point group:

     e(  1 -  1) =    -45.51961  eV     1   --> A_1  D_1  S_1  
     e(  2 -  2) =      1.59606  eV     1   --> B_2  D_4  S_4  
     e(  3 -  3) =      4.26503  eV     1   --> A_1  D_1  S_1  
     e(  4 -  4) =      9.71776  eV     1   --> B_1  D_3  S_3  

 **************************************************************************

 **************************************************************************

                    xk=(   0.50000,   0.50000,   0.20000  )

     Band symmetry, C_2v (mm2)  point group:

     e(  1 -  1) =    -45.51950  eV     1   --> A_1  D_1  S_1  
     e(  2 -  2) =      1.71455  eV     1   --> B_2  D_4  S_4  
     e(  3 -  3) =      4.27415  eV     1   --> A_1  D_1  S_1  
     e(  4 -  4) =      9.22146  eV     1   --> B_1  D_3  S_3  

 **************************************************************************

 **************************************************************************

                    xk=(   0.50000,   0.50000,   0.22500  )

     Band symmetry, C_2v (mm2)  point group:

     e(  1 -  1) =    -45.51939  eV     1   --> A_1  D_1  S_1  
     e(  2 -  2) =      1.84881  eV     1   --> B_2  D_4  S_4  
     e(  3 -  3) =      4.28388  eV     1   --> A_1  D_1  S_1  
     e(  4 -  4) =      8.73750  eV     1   --> B_1  D_3  S_3  

 **************************************************************************

 **************************************************************************

                    xk=(   0.50000,   0.50000,   0.25000  )

     Band symmetry, C_2v (mm2)  point group:

     e(  1 -  1) =    -45.51927  eV     1   --> A_1  D_1  S_1  
     e(  2 -  2) =      1.99884  eV     1   --> B_2  D_4  S_4  
     e(  3 -  3) =      4.29401  eV     1   --> A_1  D_1  S_1  
     e(  4 -  4) =      8.26676  eV     1   --> B_1  D_3  S_3  

 **************************************************************************

 **************************************************************************

                    xk=(   0.50000,   0.50000,   0.27500  )

     Band symmetry, C_2v (mm2)  point group:

     e(  1 -  1) =    -45.51915  eV     1   --> A_1  D_1  S_1  
     e(  2 -  2) =      2.16461  eV     1   --> B_2  D_4  S_4  
     e(  3 -  3) =      4.30428  eV     1   --> A_1  D_1  S_1  
     e(  4 -  4) =      7.80982  eV     1   --> B_1  D_3  S_3  

 **************************************************************************

 **************************************************************************

                    xk=(   0.50000,   0.50000,   0.30000  )

     Band symmetry, C_2v (mm2)  point group:

     e(  1 -  1) =    -45.51903  eV     1   --> A_1  D_1  S_1  
     e(  2 -  2) =      2.34613  eV     1   --> B_2  D_4  S_4  
     e(  3 -  3) =      4.31446  eV     1   --> A_1  D_1  S_1  
     e(  4 -  4) =      7.36709  eV     1   --> B_1  D_3  S_3  

 **************************************************************************

 **************************************************************************

                    xk=(   0.50000,   0.50000,   0.32500  )

     Band symmetry, C_2v (mm2)  point group:

     e(  1 -  1) =    -45.51892  eV     1   --> A_1  D_1  S_1  
     e(  2 -  2) =      2.54338  eV     1   --> B_2  D_4  S_4  
     e(  3 -  3) =      4.32427  eV     1   --> A_1  D_1  S_1  
     e(  4 -  4) =      6.93889  eV     1   --> B_1  D_3  S_3  

 **************************************************************************

 **************************************************************************

                    xk=(   0.50000,   0.50000,   0.35000  )

     Band symmetry, C_2v (mm2)  point group:

     e(  1 -  1) =    -45.51882  eV     1   --> A_1  D_1  S_1  
     e(  2 -  2) =      2.75633  eV     1   --> B_2  D_4  S_4  
     e(  3 -  3) =      4.33345  eV     1   --> A_1  D_1  S_1  
     e(  4 -  4) =      6.52544  eV     1   --> B_1  D_3  S_3  

 **************************************************************************

 **************************************************************************

                    xk=(   0.50000,   0.50000,   0.37500  )

     Band symmetry, C_2v (mm2)  point group:

     e(  1 -  1) =    -45.51873  eV     1   --> A_1  D_1  S_1  
     e(  2 -  2) =      2.98497  eV     1   --> B_2  D_4  S_4  
     e(  3 -  3) =      4.34175  eV     1   --> A_1  D_1  S_1  
     e(  4 -  4) =      6.12693  eV     1   --> B_1  D_3  S_3  

 **************************************************************************

 **************************************************************************

                    xk=(   0.50000,   0.50000,   0.40000  )

     Band symmetry, C_2v (mm2)  point group:

     e(  1 -  1) =    -45.51865  eV     1   --> A_1  D_1  S_1  
     e(  2 -  2) =      3.22928  eV     1   --> B_2  D_4  S_4  
     e(  3 -  3) =      4.34892  eV     1   --> A_1  D_1  S_1  
     e(  4 -  4) =      5.74350  eV     1   --> B_1  D_3  S_3  

 **************************************************************************

 **************************************************************************

                    xk=(   0.50000,   0.50000,   0.42500  )

     Band symmetry, C_2v (mm2)  point group:

     e(  1 -  1) =    -45.51858  eV     1   --> A_1  D_1  S_1  
     e(  2 -  2) =      3.48922  eV     1   --> B_2  D_4  S_4  
     e(  3 -  3) =      4.35475  eV     1   --> A_1  D_1  S_1  
     e(  4 -  4) =      5.37526  eV     1   --> B_1  D_3  S_3  

 **************************************************************************

 **************************************************************************

                    xk=(   0.50000,   0.50000,   0.45000  )

     Band symmetry, C_2v (mm2)  point group:

     e(  1 -  1) =    -45.51854  eV     1   --> A_1  D_1  S_1  
     e(  2 -  2) =      3.76478  eV     1   --> B_2  D_4  S_4  
     e(  3 -  3) =      4.35905  eV     1   --> A_1  D_1  S_1  
     e(  4 -  4) =      5.02231  eV     1   --> B_1  D_3  S_3  

 **************************************************************************

 **************************************************************************

                    xk=(   0.50000,   0.50000,   0.47500  )

     Band symmetry, C_2v (mm2)  point group:

     e(  1 -  1) =    -45.51851  eV     1   --> A_1  D_1  S_1  
     e(  2 -  2) =      4.05591  eV     1   --> B_2  D_4  S_4  
     e(  3 -  3) =      4.36168  eV     1   --> A_1  D_1  S_1  
     e(  4 -  4) =      4.68473  eV     1   --> B_1  D_3  S_3  

 **************************************************************************

 **************************************************************************

                    xk=(   0.50000,   0.50000,   0.50000  )

     point group T_d (-43m) 
     there are  5 classes
     the character table:

       E     8C3   3C2   6S4   6s_d 
A_1    1.00  1.00  1.00  1.00  1.00
A_2    1.00  1.00  1.00 -1.00 -1.00
E      2.00 -1.00  2.00  0.00  0.00
T_1    3.00  0.00 -1.00  1.00 -1.00
T_2    3.00  0.00 -1.00 -1.00  1.00

     the symmetry operations in each class and the name of the first element:

     E        1
                                                                 
     8C3      5    7    8    6   12    9   10   11
                                                                 
     3C2      2    3    4
                                                                 
     6S4     15   16   20   19   23   24
                                                                 
     6s_d    13   14   17   18   21   22
                                                                 

     Band symmetry, T_d (-43m)  point group:

     e(  1 -  1) =    -45.51850  eV     1   --> A_1  G_1  P_1  
     e(  2 -  4) =      4.36257  eV     3   --> T_2  G_15 P_4  

 **************************************************************************

 **************************************************************************

                    xk=(   0.47500,   0.47500,   0.47500  )

     point group C_3v (3m)  
     there are  3 classes
     the character table:

       E     2C3   3s_v 
A_1    1.00  1.00  1.00
A_2    1.00  1.00 -1.00
E      2.00 -1.00  0.00

     the symmetry operations in each class and the name of the first element:

     E        1
                                                                 
     2C3      2    3
                                                                 
     3s_v     4    5    6
                                                                 

     Band symmetry, C_3v (3m)   point group:

     e(  1 -  1) =    -45.51854  eV     1   --> A_1  L_1       
     e(  2 -  2) =      3.73380  eV     1   --> A_1  L_1       
     e(  3 -  4) =      4.70027  eV     2   --> E    L_3       

 **************************************************************************

 **************************************************************************

                    xk=(   0.45000,   0.45000,   0.45000  )

     Band symmetry, C_3v (3m)   point group:

     e(  1 -  1) =    -45.51868  eV     1   --> A_1  L_1       
     e(  2 -  2) =      3.11432  eV     1   --> A_1  L_1       
     e(  3 -  4) =      5.08438  eV     2   --> E    L_3       

 **************************************************************************

 **************************************************************************

                    xk=(   0.42500,   0.42500,   0.42500  )

     Band symmetry, C_3v (3m)   point group:

     e(  1 -  1) =    -45.51897  eV     1   --> A_1  L_1       
     e(  2 -  2) =      2.51400  eV     1   --> A_1  L_1       
     e(  3 -  4) =      5.51470  eV     2   --> E    L_3       

 **************************************************************************

 **************************************************************************

                    xk=(   0.40000,   0.40000,   0.40000  )

     Band symmetry, C_3v (3m)   point group:

     e(  1 -  1) =    -45.51944  eV     1   --> A_1  L_1       
     e(  2 -  2) =      1.93904  eV     1   --> A_1  L_1       
     e(  3 -  4) =      5.99089  eV     2   --> E    L_3       

 **************************************************************************

 **************************************************************************

                    xk=(   0.37500,   0.37500,   0.37500  )

     Band symmetry, C_3v (3m)   point group:

     e(  1 -  1) =    -45.52011  eV     1   --> A_1  L_1       
     e(  2 -  2) =      1.39338  eV     1   --> A_1  L_1       
     e(  3 -  4) =      6.51253  eV     2   --> E    L_3       

 **************************************************************************

 **************************************************************************

                    xk=(   0.35000,   0.35000,   0.35000  )

     Band symmetry, C_3v (3m)   point group:

     e(  1 -  1) =    -45.52102  eV     1   --> A_1  L_1       
     e(  2 -  2) =      0.87955  eV     1   --> A_1  L_1       
     e(  3 -  4) =      7.07905  eV     2   --> E    L_3       

 **************************************************************************

 **************************************************************************

                    xk=(   0.32500,   0.32500,   0.32500  )

     Band symmetry, C_3v (3m)   point group:

     e(  1 -  1) =    -45.52215  eV     1   --> A_1  L_1       
     e(  2 -  2) =      0.39917  eV     1   --> A_1  L_1       
     e(  3 -  4) =      7.68964  eV     2   --> E    L_3       

 **************************************************************************

 **************************************************************************

                    xk=(   0.30000,   0.30000,   0.30000  )

     Band symmetry, C_3v (3m)   point group:

     e(  1 -  1) =    -45.52350  eV     1   --> A_1  L_1       
     e(  2 -  2) =     -0.04674  eV     1   --> A_1  L_1       
     e(  3 -  4) =      8.34317  eV     2   --> E    L_3       

 **************************************************************************

 **************************************************************************

                    xk=(   0.27500,   0.27500,   0.27500  )

     Band symmetry, C_3v (3m)   point group:

     e(  1 -  1) =    -45.52504  eV     1   --> A_1  L_1       
     e(  2 -  2) =     -0.45752  eV     1   --> A_1  L_1       
     e(  3 -  4) =      9.03802  eV     2   --> E    L_3       

 **************************************************************************

 **************************************************************************

                    xk=(   0.25000,   0.25000,   0.25000  )

     Band symmetry, C_3v (3m)   point group:

     e(  1 -  1) =    -45.52674  eV     1   --> A_1  L_1       
     e(  2 -  2) =     -0.83280  eV     1   --> A_1  L_1       
     e(  3 -  4) =      9.77176  eV     2   --> E    L_3       

 **************************************************************************

 **************************************************************************

                    xk=(   0.22500,   0.22500,   0.22500  )

     Band symmetry, C_3v (3m)   point group:

     e(  1 -  1) =    -45.52855  eV     1   --> A_1  L_1       
     e(  2 -  2) =     -1.17236  eV     1   --> A_1  L_1       
     e(  3 -  4) =     10.54067  eV     2   --> E    L_3       

 **************************************************************************

 **************************************************************************

                    xk=(   0.20000,   0.20000,   0.20000  )

     Band symmetry, C_3v (3m)   point group:

     e(  1 -  1) =    -45.53041  eV     1   --> A_1  L_1       
     e(  2 -  2) =     -1.47610  eV     1   --> A_1  L_1       
     e(  3 -  4) =     11.33877  eV     2   --> E    L_3       

 **************************************************************************

 **************************************************************************

                    xk=(   0.17500,   0.17500,   0.17500  )

     Band symmetry, C_3v (3m)   point group:

     e(  1 -  1) =    -45.53227  eV     1   --> A_1  L_1       
     e(  2 -  2) =     -1.74399  eV     1   --> A_1  L_1       
     e(  3 -  4) =     12.15604  eV     2   --> E    L_3       

 **************************************************************************

 **************************************************************************

                    xk=(   0.15000,   0.15000,   0.15000  )

     Band symmetry, C_3v (3m)   point group:

     e(  1 -  1) =    -45.53405  eV     1   --> A_1  L_1       
     e(  2 -  2) =     -1.97603  eV     1   --> A_1  L_1       
     e(  3 -  4) =     12.97509  eV     2   --> E    L_3       

 **************************************************************************

 **************************************************************************

                    xk=(   0.12500,   0.12500,   0.12500  )

     Band symmetry, C_3v (3m)   point group:

     e(  1 -  1) =    -45.53569  eV     1   --> A_1  L_1       
     e(  2 -  2) =     -2.17227  eV     1   --> A_1  L_1       
     e(  3 -  3) =     13.61107  eV     1   --> A_1  L_1       
     e(  4 -  4) =     13.76509  eV     1   -->   ?

 **************************************************************************

 **************************************************************************

                    xk=(   0.10000,   0.10000,   0.10000  )

     Band symmetry, C_3v (3m)   point group:

     e(  1 -  1) =    -45.53713  eV     1   --> A_1  L_1       
     e(  2 -  2) =     -2.33274  eV     1   --> A_1  L_1       
     e(  3 -  3) =     14.14908  eV     1   --> A_1  L_1       
     e(  4 -  4) =     14.47452  eV     1   -->   ?

 **************************************************************************

 **************************************************************************

                    xk=(   0.07500,   0.07500,   0.07500  )

     Band symmetry, C_3v (3m)   point group:

     e(  1 -  1) =    -45.53831  eV     1   --> A_1  L_1       
     e(  2 -  2) =     -2.45750  eV     1   --> A_1  L_1       
     e(  3 -  3) =     14.67925  eV     1   --> A_1  L_1       
     e(  4 -  4) =     15.03571  eV     1   -->   ?

 **************************************************************************

 **************************************************************************

                    xk=(   0.05000,   0.05000,   0.05000  )

     Band symmetry, C_3v (3m)   point group:

     e(  1 -  1) =    -45.53919  eV     1   --> A_1  L_1       
     e(  2 -  2) =     -2.54658  eV     1   --> A_1  L_1       
     e(  3 -  3) =     15.15939  eV     1   --> A_1  L_1       
     e(  4 -  4) =     15.40404  eV     1   -->   ?

 **************************************************************************

 **************************************************************************

                    xk=(   0.02500,   0.02500,   0.02500  )

     Band symmetry, C_3v (3m)   point group:

     e(  1 -  1) =    -45.53974  eV     1   --> A_1  L_1       
     e(  2 -  2) =     -2.60001  eV     1   --> A_1  L_1       
     e(  3 -  3) =     15.51607  eV     1   -->   ?
     e(  4 -  4) =     15.59517  eV     1   -->   ?

 **************************************************************************

 **************************************************************************

                    xk=(   0.00000,   0.00000,   0.00000  )

     point group O_h (m-3m) 
     there are 10 classes
     the character table:

       E     8C3   3C2   6C4   6C2'  i     8S6   3s_h  6S4   6s_d 
A_1g   1.00  1.00  1.00  1.00  1.00  1.00  1.00  1.00  1.00  1.00
A_2g   1.00  1.00  1.00 -1.00 -1.00  1.00  1.00  1.00 -1.00 -1.00
E_g    2.00 -1.00  2.00  0.00  0.00  2.00 -1.00  2.00  0.00  0.00
T_1g   3.00  0.00 -1.00  1.00 -1.00  3.00  0.00 -1.00  1.00 -1.00
T_2g   3.00  0.00 -1.00 -1.00  1.00  3.00  0.00 -1.00 -1.00  1.00
A_1u   1.00  1.00  1.00  1.00  1.00 -1.00 -1.00 -1.00 -1.00 -1.00
A_2u   1.00  1.00  1.00 -1.00 -1.00 -1.00 -1.00 -1.00  1.00  1.00
E_u    2.00 -1.00  2.00  0.00  0.00 -2.00  1.00 -2.00  0.00  0.00
T_1u   3.00  0.00 -1.00  1.00 -1.00 -3.00  0.00  1.00 -1.00  1.00
T_2u   3.00  0.00 -1.00 -1.00  1.00 -3.00  0.00  1.00  1.00 -1.00

     the symmetry operations in each class and the name of the first element:

     E        1
                                                                 
     8C3     17   19   20   18   24   21   22   23
                                                                 
     3C2      2    4    3
                                                                 
     6C4      7    8   15   16   12   11
                                                                 
     6C2'     5    6   14   13   10    9
                                                                 
     i       25
                                                                 
     8S6     41   43   44   42   48   45   46   47
                                                                 
     3s_h    26   28   27
                                                                 
     6S4     31   32   39   40   36   35
                                                                 
     6s_d    29   30   38   37   34   33
                                                                 

     Band symmetry, O_h (m-3m)  point group:

     e(  1 -  1) =    -45.53992  eV     1   --> A_1g G_1   G_1+
     e(  2 -  2) =     -2.61782  eV     1   --> A_1g G_1   G_1+
     e(  3 -  4) =     15.65229  eV     2   -->   ?

 **************************************************************************

 **************************************************************************

                    xk=(   0.00000,   0.05000,   0.00000  )

     point group C_4v (4mm) 
     there are  5 classes
     the character table:

       E     2C4   C2    2s_v  2s_d 
A_1    1.00  1.00  1.00  1.00  1.00
A_2    1.00  1.00  1.00 -1.00 -1.00
B_1    1.00 -1.00  1.00  1.00 -1.00
B_2    1.00 -1.00  1.00 -1.00  1.00
E      2.00  0.00 -2.00  0.00  0.00

     the symmetry operations in each class and the name of the first element:

     E        1
                                                                 
     2C4      3    4
                                                                 
     C2       2
                                                                 
     2s_v     5    6
                                                                 
     2s_d     7    8
                                                                 

     Band symmetry, C_4v (4mm)  point group:

     e(  1 -  1) =    -45.53967  eV     1   --> A_1  G_1 D_1   
     e(  2 -  2) =     -2.59407  eV     1   --> A_1  G_1 D_1   
     e(  3 -  3) =     15.51682  eV     1   -->   ?
     e(  4 -  4) =     15.51708  eV     1   -->   ?

 **************************************************************************

 **************************************************************************

                    xk=(   0.00000,   0.10000,   0.00000  )

     Band symmetry, C_4v (4mm)  point group:

     e(  1 -  1) =    -45.53895  eV     1   --> A_1  G_1 D_1   
     e(  2 -  2) =     -2.52275  eV     1   --> A_1  G_1 D_1   
     e(  3 -  4) =     15.12760  eV     2   --> E    G_5 D_5   

 **************************************************************************

 **************************************************************************

                    xk=(   0.00000,   0.15000,   0.00000  )

     Band symmetry, C_4v (4mm)  point group:

     e(  1 -  1) =    -45.53777  eV     1   --> A_1  G_1 D_1   
     e(  2 -  2) =     -2.40367  eV     1   --> A_1  G_1 D_1   
     e(  3 -  4) =     14.54060  eV     2   --> E    G_5 D_5   

 **************************************************************************

 **************************************************************************

                    xk=(   0.00000,   0.20000,   0.00000  )

     Band symmetry, C_4v (4mm)  point group:

     e(  1 -  1) =    -45.53618  eV     1   --> A_1  G_1 D_1   
     e(  2 -  2) =     -2.23648  eV     1   --> A_1  G_1 D_1   
     e(  3 -  4) =     13.83381  eV     2   --> E    G_5 D_5   

 **************************************************************************

 **************************************************************************

                    xk=(   0.00000,   0.25000,   0.00000  )

     Band symmetry, C_4v (4mm)  point group:

     e(  1 -  1) =    -45.53423  eV     1   --> A_1  G_1 D_1   
     e(  2 -  2) =     -2.02076  eV     1   --> A_1  G_1 D_1   
     e(  3 -  4) =     13.07438  eV     2   --> E    G_5 D_5   

 **************************************************************************

 **************************************************************************

                    xk=(   0.00000,   0.30000,   0.00000  )

     Band symmetry, C_4v (4mm)  point group:

     e(  1 -  1) =    -45.53199  eV     1   --> A_1  G_1 D_1   
     e(  2 -  2) =     -1.75596  eV     1   --> A_1  G_1 D_1   
     e(  3 -  4) =     12.30680  eV     2   --> E    G_5 D_5   

 **************************************************************************

 **************************************************************************

                    xk=(   0.00000,   0.35000,   0.00000  )

     Band symmetry, C_4v (4mm)  point group:

     e(  1 -  1) =    -45.52952  eV     1   --> A_1  G_1 D_1   
     e(  2 -  2) =     -1.44143  eV     1   --> A_1  G_1 D_1   
     e(  3 -  4) =     11.55769  eV     2   --> E    G_5 D_5   

 **************************************************************************

 **************************************************************************

                    xk=(   0.00000,   0.40000,   0.00000  )

     Band symmetry, C_4v (4mm)  point group:

     e(  1 -  1) =    -45.52692  eV     1   --> A_1  G_1 D_1   
     e(  2 -  2) =     -1.07650  eV     1   --> A_1  G_1 D_1   
     e(  3 -  4) =     10.84273  eV     2   --> E    G_5 D_5   

 **************************************************************************

 **************************************************************************

                    xk=(   0.00000,   0.45000,   0.00000  )

     Band symmetry, C_4v (4mm)  point group:

     e(  1 -  1) =    -45.52426  eV     1   --> A_1  G_1 D_1   
     e(  2 -  2) =     -0.66045  eV     1   --> A_1  G_1 D_1   
     e(  3 -  4) =     10.17140  eV     2   --> E    G_5 D_5   

 **************************************************************************

 **************************************************************************

                    xk=(   0.00000,   0.50000,   0.00000  )

     Band symmetry, C_4v (4mm)  point group:

     e(  1 -  1) =    -45.52160  eV     1   --> A_1  G_1 D_1   
     e(  2 -  2) =     -0.19258  eV     1   --> A_1  G_1 D_1   
     e(  3 -  4) =      9.54960  eV     2   --> E    G_5 D_5   

 **************************************************************************

 **************************************************************************

                    xk=(   0.00000,   0.55000,   0.00000  )

     Band symmetry, C_4v (4mm)  point group:

     e(  1 -  1) =    -45.51902  eV     1   --> A_1  G_1 D_1   
     e(  2 -  2) =      0.32772  eV     1   --> A_1  G_1 D_1   
     e(  3 -  4) =      8.98118  eV     2   --> E    G_5 D_5   

 **************************************************************************

 **************************************************************************

                    xk=(   0.00000,   0.60000,   0.00000  )

     Band symmetry, C_4v (4mm)  point group:

     e(  1 -  1) =    -45.51658  eV     1   --> A_1  G_1 D_1   
     e(  2 -  2) =      0.90091  eV     1   --> A_1  G_1 D_1   
     e(  3 -  4) =      8.46867  eV     2   --> E    G_5 D_5   

 **************************************************************************

 **************************************************************************

                    xk=(   0.00000,   0.65000,   0.00000  )

     Band symmetry, C_4v (4mm)  point group:

     e(  1 -  1) =    -45.51433  eV     1   --> A_1  G_1 D_1   
     e(  2 -  2) =      1.52710  eV     1   --> A_1  G_1 D_1   
     e(  3 -  4) =      8.01383  eV     2   --> E    G_5 D_5   

 **************************************************************************

 **************************************************************************

                    xk=(   0.00000,   0.70000,   0.00000  )

     Band symmetry, C_4v (4mm)  point group:

     e(  1 -  1) =    -45.51231  eV     1   --> A_1  G_1 D_1   
     e(  2 -  2) =      2.20587  eV     1   --> A_1  G_1 D_1   
     e(  3 -  4) =      7.61791  eV     2   --> E    G_5 D_5   

 **************************************************************************

 **************************************************************************

                    xk=(   0.00000,   0.75000,   0.00000  )

     Band symmetry, C_4v (4mm)  point group:

     e(  1 -  1) =    -45.51056  eV     1   --> A_1  G_1 D_1   
     e(  2 -  2) =      2.93575  eV     1   --> A_1  G_1 D_1   
     e(  3 -  4) =      7.28176  eV     2   --> E    G_5 D_5   

 **************************************************************************

 **************************************************************************

                    xk=(   0.00000,   0.80000,   0.00000  )

     Band symmetry, C_4v (4mm)  point group:

     e(  1 -  1) =    -45.50910  eV     1   --> A_1  G_1 D_1   
     e(  2 -  2) =      3.71311  eV     1   --> A_1  G_1 D_1   
     e(  3 -  4) =      7.00604  eV     2   --> E    G_5 D_5   

 **************************************************************************

 **************************************************************************

                    xk=(   0.00000,   0.85000,   0.00000  )

     Band symmetry, C_4v (4mm)  point group:

     e(  1 -  1) =    -45.50795  eV     1   --> A_1  G_1 D_1   
     e(  2 -  2) =      4.52920  eV     1   --> A_1  G_1 D_1   
     e(  3 -  4) =      6.79118  eV     2   --> E    G_5 D_5   

 **************************************************************************

 **************************************************************************

                    xk=(   0.00000,   0.90000,   0.00000  )

     Band symmetry, C_4v (4mm)  point group:

     e(  1 -  1) =    -45.50712  eV     1   --> A_1  G_1 D_1   
     e(  2 -  2) =      5.36043  eV     1   --> A_1  G_1 D_1   
     e(  3 -  4) =      6.63750  eV     2   --> E    G_5 D_5   

 **************************************************************************

 **************************************************************************

                    xk=(   0.00000,   0.95000,   0.00000  )

     Band symmetry, C_4v (4mm)  point group:

     e(  1 -  1) =    -45.50662  eV     1   --> A_1  G_1 D_1   
     e(  2 -  2) =      6.12652  eV     1   --> A_1  G_1 D_1   
     e(  3 -  4) =      6.54522  eV     2   --> E    G_5 D_5   

 **************************************************************************

 **************************************************************************

                    xk=(   0.00000,   1.00000,   0.00000  )

     point group O_h (m-3m) 
     there are 10 classes
     the character table:

       E     8C3   3C2   6C4   6C2'  i     8S6   3s_h  6S4   6s_d 
A_1g   1.00  1.00  1.00  1.00  1.00  1.00  1.00  1.00  1.00  1.00
A_2g   1.00  1.00  1.00 -1.00 -1.00  1.00  1.00  1.00 -1.00 -1.00
E_g    2.00 -1.00  2.00  0.00  0.00  2.00 -1.00  2.00  0.00  0.00
T_1g   3.00  0.00 -1.00  1.00 -1.00  3.00  0.00 -1.00  1.00 -1.00
T_2g   3.00  0.00 -1.00 -1.00  1.00  3.00  0.00 -1.00 -1.00  1.00
A_1u   1.00  1.00  1.00  1.00  1.00 -1.00 -1.00 -1.00 -1.00 -1.00
A_2u   1.00  1.00  1.00 -1.00 -1.00 -1.00 -1.00 -1.00  1.00  1.00
E_u    2.00 -1.00  2.00  0.00  0.00 -2.00  1.00 -2.00  0.00  0.00
T_1u   3.00  0.00 -1.00  1.00 -1.00 -3.00  0.00  1.00 -1.00  1.00
T_2u   3.00  0.00 -1.00 -1.00  1.00 -3.00  0.00  1.00  1.00 -1.00

     the symmetry operations in each class and the name of the first element:

     E        1
                                                                 
     8C3     17   19   20   18   24   21   22   23
                                                                 
     3C2      2    4    3
                                                                 
     6C4      7    8   15   16   12   11
                                                                 
     6C2'     5    6   14   13   10    9
                                                                 
     i       25
                                                                 
     8S6     41   43   44   42   48   45   46   47
                                                                 
     3s_h    26   28   27
                                                                 
     6S4     31   32   39   40   36   35
                                                                 
     6s_d    29   30   38   37   34   33
                                                                 

     Band symmetry, O_h (m-3m)  point group:

     e(  1 -  1) =    -45.50645  eV     1   --> A_1g G_1   G_1+
     e(  2 -  4) =      6.51444  eV     3   --> T_1u G_15  G_4-

 **************************************************************************

 **************************************************************************

                    xk=(   0.02500,   0.97500,   0.00000  )

     point group C_2v (mm2) 
     there are  4 classes
     the character table:

       E     C2    s_v   s_v' 
A_1    1.00  1.00  1.00  1.00
A_2    1.00  1.00 -1.00 -1.00
B_1    1.00 -1.00  1.00 -1.00
B_2    1.00 -1.00 -1.00  1.00

     the symmetry operations in each class and the name of the first element:

     E        1
                                                                 
     C2       2
                                                                 
     s_v      4
                                                                 
     s_v'     3
                                                                 

     Band symmetry, C_2v (mm2)  point group:

     e(  1 -  1) =    -45.50653  eV     1   --> A_1  D_1  S_1  
     e(  2 -  2) =      6.36359  eV     1   --> B_2  D_4  S_4  
     e(  3 -  3) =      6.46299  eV     1   --> A_1  D_1  S_1  
     e(  4 -  4) =      6.52983  eV     1   --> B_1  D_3  S_3  

 **************************************************************************

 **************************************************************************

                    xk=(   0.05000,   0.95000,   0.00000  )

     Band symmetry, C_2v (mm2)  point group:

     e(  1 -  1) =    -45.50678  eV     1   --> A_1  D_1  S_1  
     e(  2 -  2) =      6.00632  eV     1   --> B_2  D_4  S_4  
     e(  3 -  3) =      6.32629  eV     1   --> A_1  D_1  S_1  
     e(  4 -  4) =      6.57598  eV     1   --> B_1  D_3  S_3  

 **************************************************************************

 **************************************************************************

                    xk=(   0.07500,   0.92500,   0.00000  )

     Band symmetry, C_2v (mm2)  point group:

     e(  1 -  1) =    -45.50719  eV     1   --> A_1  D_1  S_1  
     e(  2 -  2) =      5.56935  eV     1   --> B_2  D_4  S_4  
     e(  3 -  3) =      6.13926  eV     1   --> A_1  D_1  S_1  
     e(  4 -  4) =      6.65283  eV     1   --> B_1  D_3  S_3  

 **************************************************************************

 **************************************************************************

                    xk=(   0.10000,   0.90000,   0.00000  )

     Band symmetry, C_2v (mm2)  point group:

     e(  1 -  1) =    -45.50775  eV     1   --> A_1  D_1  S_1  
     e(  2 -  2) =      5.11393  eV     1   --> B_2  D_4  S_4  
     e(  3 -  3) =      5.93084  eV     1   --> A_1  D_1  S_1  
     e(  4 -  4) =      6.76032  eV     1   --> B_1  D_3  S_3  

 **************************************************************************

 **************************************************************************

                    xk=(   0.12500,   0.87500,   0.00000  )

     Band symmetry, C_2v (mm2)  point group:

     e(  1 -  1) =    -45.50844  eV     1   --> A_1  D_1  S_1  
     e(  2 -  2) =      4.66518  eV     1   --> B_2  D_4  S_4  
     e(  3 -  3) =      5.71899  eV     1   --> A_1  D_1  S_1  
     e(  4 -  4) =      6.89830  eV     1   --> B_1  D_3  S_3  

 **************************************************************************

 **************************************************************************

                    xk=(   0.15000,   0.85000,   0.00000  )

     Band symmetry, C_2v (mm2)  point group:

     e(  1 -  1) =    -45.50925  eV     1   --> A_1  D_1  S_1  
     e(  2 -  2) =      4.23424  eV     1   --> B_2  D_4  S_4  
     e(  3 -  3) =      5.51387  eV     1   --> A_1  D_1  S_1  
     e(  4 -  4) =      7.06661  eV     1   --> B_1  D_3  S_3  

 **************************************************************************

 **************************************************************************

                    xk=(   0.17500,   0.82500,   0.00000  )

     Band symmetry, C_2v (mm2)  point group:

     e(  1 -  1) =    -45.51015  eV     1   --> A_1  D_1  S_1  
     e(  2 -  2) =      3.82659  eV     1   --> B_2  D_4  S_4  
     e(  3 -  3) =      5.32106  eV     1   --> A_1  D_1  S_1  
     e(  4 -  4) =      7.26500  eV     1   --> B_1  D_3  S_3  

 **************************************************************************

 **************************************************************************

                    xk=(   0.20000,   0.80000,   0.00000  )

     Band symmetry, C_2v (mm2)  point group:

     e(  1 -  1) =    -45.51114  eV     1   --> A_1  D_1  S_1  
     e(  2 -  2) =      3.44520  eV     1   --> B_2  D_4  S_4  
     e(  3 -  3) =      5.14356  eV     1   --> A_1  D_1  S_1  
     e(  4 -  4) =      7.49312  eV     1   --> B_1  D_3  S_3  

 **************************************************************************

 **************************************************************************

                    xk=(   0.22500,   0.77500,   0.00000  )

     Band symmetry, C_2v (mm2)  point group:

     e(  1 -  1) =    -45.51217  eV     1   --> A_1  D_1  S_1  
     e(  2 -  2) =      3.09181  eV     1   --> B_2  D_4  S_4  
     e(  3 -  3) =      4.98286  eV     1   --> A_1  D_1  S_1  
     e(  4 -  4) =      7.75051  eV     1   --> B_1  D_3  S_3  

 **************************************************************************

 **************************************************************************

                    xk=(   0.25000,   0.75000,   0.00000  )

     Band symmetry, C_2v (mm2)  point group:

     e(  1 -  1) =    -45.51324  eV     1   --> A_1  D_1  S_1  
     e(  2 -  2) =      2.76750  eV     1   --> B_2  D_4  S_4  
     e(  3 -  3) =      4.83947  eV     1   --> A_1  D_1  S_1  
     e(  4 -  4) =      8.03654  eV     1   --> B_1  D_3  S_3  

 **************************************************************************

 **************************************************************************

                    xk=(   0.27500,   0.72500,   0.00000  )

     Band symmetry, C_2v (mm2)  point group:

     e(  1 -  1) =    -45.51430  eV     1   --> A_1  D_1  S_1  
     e(  2 -  2) =      2.47296  eV     1   --> B_2  D_4  S_4  
     e(  3 -  3) =      4.71333  eV     1   --> A_1  D_1  S_1  
     e(  4 -  4) =      8.35027  eV     1   --> B_1  D_3  S_3  

 **************************************************************************

 **************************************************************************

                    xk=(   0.30000,   0.70000,   0.00000  )

     Band symmetry, C_2v (mm2)  point group:

     e(  1 -  1) =    -45.51533  eV     1   --> A_1  D_1  S_1  
     e(  2 -  2) =      2.20868  eV     1   --> B_2  D_4  S_4  
     e(  3 -  3) =      4.60398  eV     1   --> A_1  D_1  S_1  
     e(  4 -  4) =      8.69038  eV     1   --> B_1  D_3  S_3  

 **************************************************************************

 **************************************************************************

                    xk=(   0.32500,   0.67500,   0.00000  )

     Band symmetry, C_2v (mm2)  point group:

     e(  1 -  1) =    -45.51632  eV     1   --> A_1  D_1  S_1  
     e(  2 -  2) =      1.97498  eV     1   --> B_2  D_4  S_4  
     e(  3 -  3) =      4.51067  eV     1   --> A_1  D_1  S_1  
     e(  4 -  4) =      9.05485  eV     1   --> B_1  D_3  S_3  

 **************************************************************************

 **************************************************************************

                    xk=(   0.35000,   0.65000,   0.00000  )

     Band symmetry, C_2v (mm2)  point group:

     e(  1 -  1) =    -45.51723  eV     1   --> A_1  D_1  S_1  
     e(  2 -  2) =      1.77210  eV     1   --> B_2  D_4  S_4  
     e(  3 -  3) =      4.43254  eV     1   --> A_1  D_1  S_1  
     e(  4 -  4) =      9.44052  eV     1   --> B_1  D_3  S_3  

 **************************************************************************

 **************************************************************************

                    xk=(   0.37500,   0.62500,   0.00000  )

     Band symmetry, C_2v (mm2)  point group:

     e(  1 -  1) =    -45.51804  eV     1   --> A_1  D_1  S_1  
     e(  2 -  2) =      1.60021  eV     1   --> B_2  D_4  S_4  
     e(  3 -  3) =      4.36860  eV     1   --> A_1  D_1  S_1  
     e(  4 -  4) =      9.84226  eV     1   --> B_1  D_3  S_3  

 **************************************************************************

 **************************************************************************

                    xk=(   0.40000,   0.60000,   0.00000  )

     Band symmetry, C_2v (mm2)  point group:

     e(  1 -  1) =    -45.51873  eV     1   --> A_1  D_1  S_1  
     e(  2 -  2) =      1.45943  eV     1   --> B_2  D_4  S_4  
     e(  3 -  3) =      4.31791  eV     1   --> A_1  D_1  S_1  
     e(  4 -  4) =     10.25118  eV     1   --> B_1  D_3  S_3  

 **************************************************************************

 **************************************************************************

                    xk=(   0.42500,   0.57500,   0.00000  )

     Band symmetry, C_2v (mm2)  point group:

     e(  1 -  1) =    -45.51929  eV     1   --> A_1  D_1  S_1  
     e(  2 -  2) =      1.34985  eV     1   --> B_2  D_4  S_4  
     e(  3 -  3) =      4.27954  eV     1   --> A_1  D_1  S_1  
     e(  4 -  4) =     10.65124  eV     1   --> B_1  D_3  S_3  

 **************************************************************************

 **************************************************************************

                    xk=(   0.45000,   0.55000,   0.00000  )

     Band symmetry, C_2v (mm2)  point group:

     e(  1 -  1) =    -45.51970  eV     1   --> A_1  D_1  S_1  
     e(  2 -  2) =      1.27154  eV     1   --> B_2  D_4  S_4  
     e(  3 -  3) =      4.25275  eV     1   --> A_1  D_1  S_1  
     e(  4 -  4) =     11.01241  eV     1   --> B_1  D_3  S_3  

 **************************************************************************

 **************************************************************************

                    xk=(   0.47500,   0.52500,   0.00000  )

     Band symmetry, C_2v (mm2)  point group:

     e(  1 -  1) =    -45.51995  eV     1   --> A_1  D_1  S_1  
     e(  2 -  2) =      1.22454  eV     1   --> B_2  D_4  S_4  
     e(  3 -  3) =      4.23692  eV     1   --> A_1  D_1  S_1  
     e(  4 -  4) =     11.28111  eV     1   --> B_1  D_3  S_3  

 **************************************************************************

 **************************************************************************

                    xk=(   0.50000,   0.50000,   0.00000  )

     point group D_2h (mmm) 
     there are  8 classes
     the character table:

       E     C2    C2'   C2''  i     s_v   s_v'  s_v''
A_g    1.00  1.00  1.00  1.00  1.00  1.00  1.00  1.00
B_1g   1.00  1.00 -1.00 -1.00  1.00  1.00 -1.00 -1.00
B_2g   1.00 -1.00  1.00 -1.00  1.00 -1.00  1.00 -1.00
B_3g   1.00 -1.00 -1.00  1.00  1.00 -1.00 -1.00  1.00
A_u    1.00  1.00  1.00  1.00 -1.00 -1.00 -1.00 -1.00
B_1u   1.00  1.00 -1.00 -1.00 -1.00 -1.00  1.00  1.00
B_2u   1.00 -1.00  1.00 -1.00 -1.00  1.00 -1.00  1.00
B_3u   1.00 -1.00 -1.00  1.00 -1.00  1.00  1.00 -1.00

     the symmetry operations in each class and the name of the first element:

     E        1
                                                                 
     C2       2
                                                                 
     C2'      4
                                                                 
     C2''     3
                                                                 
     i        5
                                                                 
     s_v      6
                                                                 
     s_v'     8
                                                                 
     s_v''    7
                                                                 

     Band symmetry, D_2h (mmm)  point group:

     e(  1 -  1) =    -45.52003  eV     1   --> A_g            
     e(  2 -  2) =      1.20887  eV     1   --> B_3u           
     e(  3 -  3) =      4.23168  eV     1   --> A_g            
     e(  4 -  4) =     11.38412  eV     1   --> B_1u           

 **************************************************************************
 
     BANDS        :     12.32s CPU     13.55s WALL

 
   This run was terminated on:  23: 8:12   3Nov2020            

=------------------------------------------------------------------------------=
   JOB DONE.
=------------------------------------------------------------------------------=
