
     Program BANDS v.6.6 starts on  7Nov2020 at 21:27:53 

     This program is part of the open-source Quantum ESPRESSO suite
     for quantum simulation of materials; please cite
         "P. Giannozzi et al., J. Phys.:Condens. Matter 21 395502 (2009);
         "P. Giannozzi et al., J. Phys.:Condens. Matter 29 465901 (2017);
          URL http://www.quantum-espresso.org", 
     in publications or presentations arising from this work. More details at
     http://www.quantum-espresso.org/quote

     Parallel version (MPI), running on     1 processors

     MPI processes distributed on     1 nodes
     Fft bands division:     nmany     =       1

     Reading xml data from directory:

     ./outdir/graphene.save/
     Message from routine readpp:
     file ./outdir/graphene.save/C.pbe-n-kjpaw_psl.1.0.0.UPF not found
     file C.pbe-n-kjpaw_psl.1.0.0.UPF: wavefunction(s)  2S 2P renormalized

     IMPORTANT: XC functional enforced from input :
     Exchange-correlation= PBE
                           (   1   4   3   4   0   0   0)
     Any further DFT definition will be discarded
     Please, verify this is what you really want

 
     G-vector sticks info
     --------------------
     sticks:   dense  smooth     PW     G-vecs:    dense   smooth      PW
     Sum         547     241     85                17995     5313     991
 

     Check: negative core charge=   -0.000010
     Reading collected, re-writing distributed wavefunctions
     high-symmetry point:  0.3333 0.5774 0.0000   x coordinate   0.0000
     high-symmetry point:  0.0000 0.0000 0.0000   x coordinate   0.6667
     high-symmetry point:  0.0000 0.5774 0.0000   x coordinate   1.2440
     high-symmetry point:  0.3333 0.5774 0.0000   x coordinate   1.5774

     Plottable bands (eV) written to file graphene.bands.dat.gnu
     Bands written to file graphene.bands.dat

 **************************************************************************

                    xk=(   0.33333,   0.57735,   0.00000  )

     point group C_1 (1)    
     there are  1 classes
     the character table:

       E    
A      1.00

     the symmetry operations in each class and the name of the first element:

     E        1
                                                                 

     Band symmetry, C_1 (1)     point group:

     e(  1 -  2) =     -7.86193  eV     2   -->   2 A              
     e(  3 -  3) =     -5.81369  eV     1   --> A              
     e(  4 -  5) =      4.80808  eV     2   -->   2 A              
     e(  6 -  6) =     16.48619  eV     1   --> A              
     e(  7 -  8) =     16.67881  eV     2   -->   2 A              
     e(  9 -  9) =     17.20084  eV     1   --> A              
     e( 10 - 11) =     21.16991  eV     2   -->   2 A              
     e( 12 - 12) =     24.05287  eV     1   --> A              
     e( 13 - 13) =     29.43924  eV     1   --> A              
     e( 14 - 15) =     29.78381  eV     2   -->   2 A              
     e( 16 - 17) =     37.93156  eV     2   -->   2 A              
     e( 18 - 18) =     39.31904  eV     1   --> A              
     e( 19 - 19) =     40.10865  eV     1   --> A              
     e( 20 - 21) =     44.12566  eV     2   -->   2 A              
     e( 22 - 22) =     47.23330  eV     1   --> A              
     e( 23 - 24) =     48.52926  eV     2   -->   2 A              
     e( 25 - 25) =     50.59963  eV     1   --> A              
     e( 26 - 27) =     53.93482  eV     2   -->   2 A              
     e( 28 - 28) =     61.14773  eV     1   --> A              
     e( 29 - 30) =     61.41383  eV     2   -->   2 A              
     e( 31 - 32) =     63.24993  eV     2   -->   2 A              

 **************************************************************************

 **************************************************************************

                    xk=(   0.32500,   0.56292,   0.00000  )

     Band symmetry, C_1 (1)     point group:

     e(  1 -  1) =     -8.05459  eV     1   --> A              
     e(  2 -  2) =     -7.69020  eV     1   --> A              
     e(  3 -  3) =     -5.78218  eV     1   --> A              
     e(  4 -  4) =      4.57076  eV     1   --> A              
     e(  5 -  5) =      5.04426  eV     1   --> A              
     e(  6 -  6) =     16.47495  eV     1   --> A              
     e(  7 -  7) =     16.50303  eV     1   --> A              
     e(  8 -  8) =     16.80066  eV     1   --> A              
     e(  9 -  9) =     17.23364  eV     1   --> A              
     e( 10 - 10) =     21.10500  eV     1   --> A              
     e( 11 - 11) =     21.24994  eV     1   --> A              
     e( 12 - 12) =     24.11230  eV     1   --> A              
     e( 13 - 13) =     29.42121  eV     1   --> A              
     e( 14 - 14) =     29.61275  eV     1   --> A              
     e( 15 - 15) =     29.94242  eV     1   --> A              
     e( 16 - 16) =     37.70725  eV     1   --> A              
     e( 17 - 17) =     38.13440  eV     1   --> A              
     e( 18 - 18) =     39.33966  eV     1   --> A              
     e( 19 - 19) =     40.15154  eV     1   --> A              
     e( 20 - 20) =     43.75434  eV     1   --> A              
     e( 21 - 21) =     44.35188  eV     1   --> A              
     e( 22 - 22) =     47.40574  eV     1   --> A              
     e( 23 - 23) =     48.16361  eV     1   --> A              
     e( 24 - 24) =     48.70055  eV     1   --> A              
     e( 25 - 25) =     50.73521  eV     1   --> A              
     e( 26 - 26) =     53.43615  eV     1   --> A              
     e( 27 - 27) =     54.47009  eV     1   --> A              
     e( 28 - 28) =     61.15976  eV     1   --> A              
     e( 29 - 29) =     61.16490  eV     1   --> A              
     e( 30 - 30) =     61.61383  eV     1   --> A              
     e( 31 - 31) =     63.21431  eV     1   --> A              
     e( 32 - 32) =     63.27924  eV     1   --> A              

 **************************************************************************

 **************************************************************************

                    xk=(   0.31667,   0.54848,   0.00000  )

     Band symmetry, C_1 (1)     point group:

     e(  1 -  1) =     -8.28734  eV     1   --> A              
     e(  2 -  2) =     -7.51062  eV     1   --> A              
     e(  3 -  3) =     -5.69887  eV     1   --> A              
     e(  4 -  4) =      4.32130  eV     1   --> A              
     e(  5 -  5) =      5.29070  eV     1   --> A              
     e(  6 -  6) =     16.16772  eV     1   --> A              
     e(  7 -  7) =     16.55241  eV     1   --> A              
     e(  8 -  8) =     16.91047  eV     1   --> A              
     e(  9 -  9) =     17.29403  eV     1   --> A              
     e( 10 - 10) =     21.06734  eV     1   --> A              
     e( 11 - 11) =     21.31532  eV     1   --> A              
     e( 12 - 12) =     24.28896  eV     1   --> A              
     e( 13 - 13) =     29.36553  eV     1   --> A              
     e( 14 - 14) =     29.41776  eV     1   --> A              
     e( 15 - 15) =     30.10195  eV     1   --> A              
     e( 16 - 16) =     37.43837  eV     1   --> A              
     e( 17 - 17) =     38.35404  eV     1   --> A              
     e( 18 - 18) =     39.39908  eV     1   --> A              
     e( 19 - 19) =     40.26524  eV     1   --> A              
     e( 20 - 20) =     43.40484  eV     1   --> A              
     e( 21 - 21) =     44.28417  eV     1   --> A              
     e( 22 - 22) =     47.80734  eV     1   --> A              
     e( 23 - 23) =     47.90343  eV     1   --> A              
     e( 24 - 24) =     48.53230  eV     1   --> A              
     e( 25 - 25) =     51.07527  eV     1   --> A              
     e( 26 - 26) =     52.96712  eV     1   --> A              
     e( 27 - 27) =     55.03879  eV     1   --> A              
     e( 28 - 28) =     60.87026  eV     1   --> A              
     e( 29 - 29) =     61.22733  eV     1   --> A              
     e( 30 - 30) =     61.74525  eV     1   --> A              
     e( 31 - 31) =     63.19095  eV     1   --> A              
     e( 32 - 32) =     63.29613  eV     1   --> A              

 **************************************************************************

 **************************************************************************

                    xk=(   0.30833,   0.53405,   0.00000  )

     Band symmetry, C_1 (1)     point group:

     e(  1 -  1) =     -8.54580  eV     1   --> A              
     e(  2 -  2) =     -7.32301  eV     1   --> A              
     e(  3 -  3) =     -5.57724  eV     1   --> A              
     e(  4 -  4) =      4.06155  eV     1   --> A              
     e(  5 -  5) =      5.54737  eV     1   --> A              
     e(  6 -  6) =     15.81081  eV     1   --> A              
     e(  7 -  7) =     16.63268  eV     1   --> A              
     e(  8 -  8) =     17.00492  eV     1   --> A              
     e(  9 -  9) =     17.34397  eV     1   --> A              
     e( 10 - 10) =     21.06030  eV     1   --> A              
     e( 11 - 11) =     21.36357  eV     1   --> A              
     e( 12 - 12) =     24.56975  eV     1   --> A              
     e( 13 - 13) =     29.20330  eV     1   --> A              
     e( 14 - 14) =     29.27185  eV     1   --> A              
     e( 15 - 15) =     30.26111  eV     1   --> A              
     e( 16 - 16) =     37.14591  eV     1   --> A              
     e( 17 - 17) =     38.59051  eV     1   --> A              
     e( 18 - 18) =     39.49372  eV     1   --> A              
     e( 19 - 19) =     40.43037  eV     1   --> A              
     e( 20 - 20) =     43.07894  eV     1   --> A              
     e( 21 - 21) =     44.03394  eV     1   --> A              
     e( 22 - 22) =     47.46104  eV     1   --> A              
     e( 23 - 23) =     48.19771  eV     1   --> A              
     e( 24 - 24) =     48.61281  eV     1   --> A              
     e( 25 - 25) =     51.41950  eV     1   --> A              
     e( 26 - 26) =     52.53167  eV     1   --> A              
     e( 27 - 27) =     55.65449  eV     1   --> A              
     e( 28 - 28) =     60.54670  eV     1   --> A              
     e( 29 - 29) =     61.35351  eV     1   --> A              
     e( 30 - 30) =     61.81625  eV     1   --> A              
     e( 31 - 31) =     63.19792  eV     1   --> A              
     e( 32 - 32) =     63.29741  eV     1   --> A              

 **************************************************************************

 **************************************************************************

                    xk=(   0.30000,   0.51962,   0.00000  )

     Band symmetry, C_1 (1)     point group:

     e(  1 -  1) =     -8.81934  eV     1   --> A              
     e(  2 -  2) =     -7.12740  eV     1   --> A              
     e(  3 -  3) =     -5.42770  eV     1   --> A              
     e(  4 -  4) =      3.79336  eV     1   --> A              
     e(  5 -  5) =      5.81423  eV     1   --> A              
     e(  6 -  6) =     15.42939  eV     1   --> A              
     e(  7 -  7) =     16.74199  eV     1   --> A              
     e(  8 -  8) =     17.08097  eV     1   --> A              
     e(  9 -  9) =     17.36594  eV     1   --> A              
     e( 10 - 10) =     21.08644  eV     1   --> A              
     e( 11 - 11) =     21.40992  eV     1   --> A              
     e( 12 - 12) =     24.92737  eV     1   --> A              
     e( 13 - 13) =     28.97375  eV     1   --> A              
     e( 14 - 14) =     29.14044  eV     1   --> A              
     e( 15 - 15) =     30.41853  eV     1   --> A              
     e( 16 - 16) =     36.84486  eV     1   --> A              
     e( 17 - 17) =     38.84331  eV     1   --> A              
     e( 18 - 18) =     39.61930  eV     1   --> A              
     e( 19 - 19) =     40.63268  eV     1   --> A              
     e( 20 - 20) =     42.77837  eV     1   --> A              
     e( 21 - 21) =     43.70062  eV     1   --> A              
     e( 22 - 22) =     47.12488  eV     1   --> A              
     e( 23 - 23) =     47.80037  eV     1   --> A              
     e( 24 - 24) =     49.43238  eV     1   --> A              
     e( 25 - 25) =     51.63834  eV     1   --> A              
     e( 26 - 26) =     52.13281  eV     1   --> A              
     e( 27 - 27) =     56.34262  eV     1   --> A              
     e( 28 - 28) =     60.19023  eV     1   --> A              
     e( 29 - 29) =     61.54048  eV     1   --> A              
     e( 30 - 30) =     61.83759  eV     1   --> A              
     e( 31 - 31) =     63.24462  eV     1   --> A              
     e( 32 - 32) =     63.27970  eV     1   --> A              

 **************************************************************************

 **************************************************************************

                    xk=(   0.29167,   0.50518,   0.00000  )

     Band symmetry, C_1 (1)     point group:

     e(  1 -  1) =     -9.10078  eV     1   --> A              
     e(  2 -  2) =     -6.92369  eV     1   --> A              
     e(  3 -  3) =     -5.25693  eV     1   --> A              
     e(  4 -  4) =      3.51858  eV     1   --> A              
     e(  5 -  5) =      6.09089  eV     1   --> A              
     e(  6 -  6) =     15.03677  eV     1   --> A              
     e(  7 -  7) =     16.87844  eV     1   --> A              
     e(  8 -  8) =     17.13652  eV     1   --> A              
     e(  9 -  9) =     17.35120  eV     1   --> A              
     e( 10 - 10) =     21.14735  eV     1   --> A              
     e( 11 - 11) =     21.47419  eV     1   --> A              
     e( 12 - 12) =     25.33435  eV     1   --> A              
     e( 13 - 13) =     28.73322  eV     1   --> A              
     e( 14 - 14) =     28.97160  eV     1   --> A              
     e( 15 - 15) =     30.57257  eV     1   --> A              
     e( 16 - 16) =     36.54505  eV     1   --> A              
     e( 17 - 17) =     39.11155  eV     1   --> A              
     e( 18 - 18) =     39.77067  eV     1   --> A              
     e( 19 - 19) =     40.86256  eV     1   --> A              
     e( 20 - 20) =     42.50509  eV     1   --> A              
     e( 21 - 21) =     43.33601  eV     1   --> A              
     e( 22 - 22) =     46.79892  eV     1   --> A              
     e( 23 - 23) =     47.38261  eV     1   --> A              
     e( 24 - 24) =     50.30737  eV     1   --> A              
     e( 25 - 25) =     51.69108  eV     1   --> A              
     e( 26 - 26) =     51.77315  eV     1   --> A              
     e( 27 - 27) =     57.11800  eV     1   --> A              
     e( 28 - 28) =     59.80148  eV     1   --> A              
     e( 29 - 29) =     61.76493  eV     1   --> A              
     e( 30 - 30) =     61.82188  eV     1   --> A              
     e( 31 - 31) =     63.24133  eV     1   --> A              
     e( 32 - 32) =     63.33384  eV     1   --> A              

 **************************************************************************

 **************************************************************************

                    xk=(   0.28333,   0.49075,   0.00000  )

     Band symmetry, C_1 (1)     point group:

     e(  1 -  1) =     -9.38537  eV     1   --> A              
     e(  2 -  2) =     -6.71240  eV     1   --> A              
     e(  3 -  3) =     -5.07005  eV     1   --> A              
     e(  4 -  4) =      3.23894  eV     1   --> A              
     e(  5 -  5) =      6.37684  eV     1   --> A              
     e(  6 -  6) =     14.64066  eV     1   --> A              
     e(  7 -  7) =     17.03984  eV     1   --> A              
     e(  8 -  8) =     17.17019  eV     1   --> A              
     e(  9 -  9) =     17.29643  eV     1   --> A              
     e( 10 - 10) =     21.24310  eV     1   --> A              
     e( 11 - 11) =     21.57110  eV     1   --> A              
     e( 12 - 12) =     25.76753  eV     1   --> A              
     e( 13 - 13) =     28.48565  eV     1   --> A              
     e( 14 - 14) =     28.76734  eV     1   --> A              
     e( 15 - 15) =     30.72163  eV     1   --> A              
     e( 16 - 16) =     36.25293  eV     1   --> A              
     e( 17 - 17) =     39.39398  eV     1   --> A              
     e( 18 - 18) =     39.94047  eV     1   --> A              
     e( 19 - 19) =     41.11306  eV     1   --> A              
     e( 20 - 20) =     42.26057  eV     1   --> A              
     e( 21 - 21) =     42.96787  eV     1   --> A              
     e( 22 - 22) =     46.48308  eV     1   --> A              
     e( 23 - 23) =     46.96372  eV     1   --> A              
     e( 24 - 24) =     51.20852  eV     1   --> A              
     e( 25 - 25) =     51.45443  eV     1   --> A              
     e( 26 - 26) =     51.58950  eV     1   --> A              
     e( 27 - 27) =     57.97488  eV     1   --> A              
     e( 28 - 28) =     59.38006  eV     1   --> A              
     e( 29 - 29) =     61.78249  eV     1   --> A              
     e( 30 - 30) =     61.99244  eV     1   --> A              
     e( 31 - 31) =     63.18132  eV     1   --> A              
     e( 32 - 32) =     63.45703  eV     1   --> A              

 **************************************************************************

 **************************************************************************

                    xk=(   0.27500,   0.47631,   0.00000  )

     Band symmetry, C_1 (1)     point group:

     e(  1 -  1) =     -9.67002  eV     1   --> A              
     e(  2 -  2) =     -6.49323  eV     1   --> A              
     e(  3 -  3) =     -4.86984  eV     1   --> A              
     e(  4 -  4) =      2.95628  eV     1   --> A              
     e(  5 -  5) =      6.67258  eV     1   --> A              
     e(  6 -  6) =     14.24583  eV     1   --> A              
     e(  7 -  7) =     17.18253  eV     1   --> A              
     e(  8 -  8) =     17.20270  eV     1   --> A              
     e(  9 -  9) =     17.22436  eV     1   --> A              
     e( 10 - 10) =     21.37238  eV     1   --> A              
     e( 11 - 11) =     21.70823  eV     1   --> A              
     e( 12 - 12) =     26.20880  eV     1   --> A              
     e( 13 - 13) =     28.23474  eV     1   --> A              
     e( 14 - 14) =     28.53025  eV     1   --> A              
     e( 15 - 15) =     30.86414  eV     1   --> A              
     e( 16 - 16) =     35.97296  eV     1   --> A              
     e( 17 - 17) =     39.68910  eV     1   --> A              
     e( 18 - 18) =     40.11827  eV     1   --> A              
     e( 19 - 19) =     41.37849  eV     1   --> A              
     e( 20 - 20) =     42.04741  eV     1   --> A              
     e( 21 - 21) =     42.61607  eV     1   --> A              
     e( 22 - 22) =     46.17774  eV     1   --> A              
     e( 23 - 23) =     46.55527  eV     1   --> A              
     e( 24 - 24) =     51.17801  eV     1   --> A              
     e( 25 - 25) =     51.36803  eV     1   --> A              
     e( 26 - 26) =     52.11613  eV     1   --> A              
     e( 27 - 27) =     58.89472  eV     1   --> A              
     e( 28 - 28) =     58.92653  eV     1   --> A              
     e( 29 - 29) =     61.73482  eV     1   --> A              
     e( 30 - 30) =     62.20070  eV     1   --> A              
     e( 31 - 31) =     63.09927  eV     1   --> A              
     e( 32 - 32) =     63.58801  eV     1   --> A              

 **************************************************************************

 **************************************************************************

                    xk=(   0.26667,   0.46188,   0.00000  )

     Band symmetry, C_1 (1)     point group:

     e(  1 -  1) =     -9.95234  eV     1   --> A              
     e(  2 -  2) =     -6.26663  eV     1   --> A              
     e(  3 -  3) =     -4.65870  eV     1   --> A              
     e(  4 -  4) =      2.67188  eV     1   --> A              
     e(  5 -  5) =      6.97665  eV     1   --> A              
     e(  6 -  6) =     13.85546  eV     1   --> A              
     e(  7 -  7) =     17.07403  eV     1   --> A              
     e(  8 -  8) =     17.17389  eV     1   --> A              
     e(  9 -  9) =     17.42961  eV     1   --> A              
     e( 10 - 10) =     21.53206  eV     1   --> A              
     e( 11 - 11) =     21.88737  eV     1   --> A              
     e( 12 - 12) =     26.64375  eV     1   --> A              
     e( 13 - 13) =     27.98380  eV     1   --> A              
     e( 14 - 14) =     28.26398  eV     1   --> A              
     e( 15 - 15) =     30.99823  eV     1   --> A              
     e( 16 - 16) =     35.70802  eV     1   --> A              
     e( 17 - 17) =     39.99435  eV     1   --> A              
     e( 18 - 18) =     40.28426  eV     1   --> A              
     e( 19 - 19) =     41.65258  eV     1   --> A              
     e( 20 - 20) =     41.86602  eV     1   --> A              
     e( 21 - 21) =     42.30371  eV     1   --> A              
     e( 22 - 22) =     45.88353  eV     1   --> A              
     e( 23 - 23) =     46.16716  eV     1   --> A              
     e( 24 - 24) =     50.94434  eV     1   --> A              
     e( 25 - 25) =     51.06380  eV     1   --> A              
     e( 26 - 26) =     53.01224  eV     1   --> A              
     e( 27 - 27) =     58.43875  eV     1   --> A              
     e( 28 - 28) =     59.85231  eV     1   --> A              
     e( 29 - 29) =     61.69534  eV     1   --> A              
     e( 30 - 30) =     62.38688  eV     1   --> A              
     e( 31 - 31) =     62.99543  eV     1   --> A              
     e( 32 - 32) =     63.68707  eV     1   --> A              

 **************************************************************************

 **************************************************************************

                    xk=(   0.25833,   0.44745,   0.00000  )

     Band symmetry, C_1 (1)     point group:

     e(  1 -  1) =    -10.23087  eV     1   --> A              
     e(  2 -  2) =     -6.03258  eV     1   --> A              
     e(  3 -  3) =     -4.43800  eV     1   --> A              
     e(  4 -  4) =      2.38734  eV     1   --> A              
     e(  5 -  5) =      7.28928  eV     1   --> A              
     e(  6 -  6) =     13.47165  eV     1   --> A              
     e(  7 -  7) =     16.91742  eV     1   --> A              
     e(  8 -  8) =     17.14721  eV     1   --> A              
     e(  9 -  9) =     17.65357  eV     1   --> A              
     e( 10 - 10) =     21.71770  eV     1   --> A              
     e( 11 - 11) =     22.10654  eV     1   --> A              
     e( 12 - 12) =     27.06090  eV     1   --> A              
     e( 13 - 13) =     27.73612  eV     1   --> A              
     e( 14 - 14) =     27.97273  eV     1   --> A              
     e( 15 - 15) =     31.12247  eV     1   --> A              
     e( 16 - 16) =     35.46013  eV     1   --> A              
     e( 17 - 17) =     40.30693  eV     1   --> A              
     e( 18 - 18) =     40.40197  eV     1   --> A              
     e( 19 - 19) =     41.71889  eV     1   --> A              
     e( 20 - 20) =     41.92716  eV     1   --> A              
     e( 21 - 21) =     42.06928  eV     1   --> A              
     e( 22 - 22) =     45.60215  eV     1   --> A              
     e( 23 - 23) =     45.81053  eV     1   --> A              
     e( 24 - 24) =     50.70830  eV     1   --> A              
     e( 25 - 25) =     50.75319  eV     1   --> A              
     e( 26 - 26) =     53.87666  eV     1   --> A              
     e( 27 - 27) =     57.91633  eV     1   --> A              
     e( 28 - 28) =     60.80833  eV     1   --> A              
     e( 29 - 29) =     61.68482  eV     1   --> A              
     e( 30 - 30) =     62.57454  eV     1   --> A              
     e( 31 - 31) =     62.86878  eV     1   --> A              
     e( 32 - 32) =     63.72972  eV     1   --> A              

 **************************************************************************

 **************************************************************************

                    xk=(   0.25000,   0.43301,   0.00000  )

     Band symmetry, C_1 (1)     point group:

     e(  1 -  1) =    -10.50451  eV     1   --> A              
     e(  2 -  2) =     -5.79114  eV     1   --> A              
     e(  3 -  3) =     -4.20908  eV     1   --> A              
     e(  4 -  4) =      2.10369  eV     1   --> A              
     e(  5 -  5) =      7.61008  eV     1   --> A              
     e(  6 -  6) =     13.09587  eV     1   --> A              
     e(  7 -  7) =     16.73911  eV     1   --> A              
     e(  8 -  8) =     17.10491  eV     1   --> A              
     e(  9 -  9) =     17.89397  eV     1   --> A              
     e( 10 - 10) =     21.92308  eV     1   --> A              
     e( 11 - 11) =     22.36177  eV     1   --> A              
     e( 12 - 12) =     27.45026  eV     1   --> A              
     e( 13 - 13) =     27.49462  eV     1   --> A              
     e( 14 - 14) =     27.66424  eV     1   --> A              
     e( 15 - 15) =     31.23540  eV     1   --> A              
     e( 16 - 16) =     35.23018  eV     1   --> A              
     e( 17 - 17) =     40.41528  eV     1   --> A              
     e( 18 - 18) =     40.62317  eV     1   --> A              
     e( 19 - 19) =     41.60736  eV     1   --> A              
     e( 20 - 20) =     41.96906  eV     1   --> A              
     e( 21 - 21) =     42.18942  eV     1   --> A              
     e( 22 - 22) =     45.33641  eV     1   --> A              
     e( 23 - 23) =     45.50095  eV     1   --> A              
     e( 24 - 24) =     50.32632  eV     1   --> A              
     e( 25 - 25) =     50.60391  eV     1   --> A              
     e( 26 - 26) =     54.68322  eV     1   --> A              
     e( 27 - 27) =     57.35839  eV     1   --> A              
     e( 28 - 28) =     61.66409  eV     1   --> A              
     e( 29 - 29) =     61.72865  eV     1   --> A              
     e( 30 - 30) =     62.72115  eV     1   --> A              
     e( 31 - 31) =     62.82143  eV     1   --> A              
     e( 32 - 32) =     63.74106  eV     1   --> A              

 **************************************************************************

 **************************************************************************

                    xk=(   0.24167,   0.41858,   0.00000  )

     Band symmetry, C_1 (1)     point group:

     e(  1 -  1) =    -10.77225  eV     1   --> A              
     e(  2 -  2) =     -5.54251  eV     1   --> A              
     e(  3 -  3) =     -3.97300  eV     1   --> A              
     e(  4 -  4) =      1.82268  eV     1   --> A              
     e(  5 -  5) =      7.93863  eV     1   --> A              
     e(  6 -  6) =     12.72930  eV     1   --> A              
     e(  7 -  7) =     16.54531  eV     1   --> A              
     e(  8 -  8) =     17.04931  eV     1   --> A              
     e(  9 -  9) =     18.14838  eV     1   --> A              
     e( 10 - 10) =     22.14010  eV     1   --> A              
     e( 11 - 11) =     22.64876  eV     1   --> A              
     e( 12 - 12) =     27.26275  eV     1   --> A              
     e( 13 - 13) =     27.34621  eV     1   --> A              
     e( 14 - 14) =     27.80377  eV     1   --> A              
     e( 15 - 15) =     31.33587  eV     1   --> A              
     e( 16 - 16) =     35.01824  eV     1   --> A              
     e( 17 - 17) =     40.29298  eV     1   --> A              
     e( 18 - 18) =     40.93744  eV     1   --> A              
     e( 19 - 19) =     41.53251  eV     1   --> A              
     e( 20 - 20) =     42.03434  eV     1   --> A              
     e( 21 - 21) =     42.41883  eV     1   --> A              
     e( 22 - 22) =     45.09099  eV     1   --> A              
     e( 23 - 23) =     45.26188  eV     1   --> A              
     e( 24 - 24) =     49.93692  eV     1   --> A              
     e( 25 - 25) =     50.49458  eV     1   --> A              
     e( 26 - 26) =     55.39925  eV     1   --> A              
     e( 27 - 27) =     56.76440  eV     1   --> A              
     e( 28 - 28) =     61.85694  eV     1   --> A              
     e( 29 - 29) =     62.20880  eV     1   --> A              
     e( 30 - 30) =     62.54864  eV     1   --> A              
     e( 31 - 31) =     63.10979  eV     1   --> A              
     e( 32 - 32) =     63.95439  eV     1   --> A              

 **************************************************************************

 **************************************************************************

                    xk=(   0.23333,   0.40415,   0.00000  )

     Band symmetry, C_1 (1)     point group:

     e(  1 -  1) =    -11.03355  eV     1   --> A              
     e(  2 -  2) =     -5.28673  eV     1   --> A              
     e(  3 -  3) =     -3.73071  eV     1   --> A              
     e(  4 -  4) =      1.54506  eV     1   --> A              
     e(  5 -  5) =      8.27434  eV     1   --> A              
     e(  6 -  6) =     12.37271  eV     1   --> A              
     e(  7 -  7) =     16.34104  eV     1   --> A              
     e(  8 -  8) =     16.98270  eV     1   --> A              
     e(  9 -  9) =     18.41413  eV     1   --> A              
     e( 10 - 10) =     22.35775  eV     1   --> A              
     e( 11 - 11) =     22.96341  eV     1   --> A              
     e( 12 - 12) =     27.03031  eV     1   --> A              
     e( 13 - 13) =     27.04330  eV     1   --> A              
     e( 14 - 14) =     28.11496  eV     1   --> A              
     e( 15 - 15) =     31.42273  eV     1   --> A              
     e( 16 - 16) =     34.82270  eV     1   --> A              
     e( 17 - 17) =     40.06849  eV     1   --> A              
     e( 18 - 18) =     41.24173  eV     1   --> A              
     e( 19 - 19) =     41.49474  eV     1   --> A              
     e( 20 - 20) =     42.23032  eV     1   --> A              
     e( 21 - 21) =     42.58557  eV     1   --> A              
     e( 22 - 22) =     44.87350  eV     1   --> A              
     e( 23 - 23) =     45.12619  eV     1   --> A              
     e( 24 - 24) =     49.55498  eV     1   --> A              
     e( 25 - 25) =     50.42275  eV     1   --> A              
     e( 26 - 26) =     55.98703  eV     1   --> A              
     e( 27 - 27) =     56.13484  eV     1   --> A              
     e( 28 - 28) =     62.09633  eV     1   --> A              
     e( 29 - 29) =     62.34571  eV     1   --> A              
     e( 30 - 30) =     62.43875  eV     1   --> A              
     e( 31 - 31) =     63.09389  eV     1   --> A              
     e( 32 - 32) =     64.20789  eV     1   --> A              

 **************************************************************************

 **************************************************************************

                    xk=(   0.22500,   0.38971,   0.00000  )

     Band symmetry, C_1 (1)     point group:

     e(  1 -  1) =    -11.28782  eV     1   --> A              
     e(  2 -  2) =     -5.02428  eV     1   --> A              
     e(  3 -  3) =     -3.48298  eV     1   --> A              
     e(  4 -  4) =      1.27188  eV     1   --> A              
     e(  5 -  5) =      8.61689  eV     1   --> A              
     e(  6 -  6) =     12.02667  eV     1   --> A              
     e(  7 -  7) =     16.13120  eV     1   --> A              
     e(  8 -  8) =     16.90712  eV     1   --> A              
     e(  9 -  9) =     18.68830  eV     1   --> A              
     e( 10 - 10) =     22.56059  eV     1   --> A              
     e( 11 - 11) =     23.30192  eV     1   --> A              
     e( 12 - 12) =     26.73289  eV     1   --> A              
     e( 13 - 13) =     26.83995  eV     1   --> A              
     e( 14 - 14) =     28.37885  eV     1   --> A              
     e( 15 - 15) =     31.49618  eV     1   --> A              
     e( 16 - 16) =     34.64044  eV     1   --> A              
     e( 17 - 17) =     39.79369  eV     1   --> A              
     e( 18 - 18) =     41.49476  eV     1   --> A              
     e( 19 - 19) =     41.52359  eV     1   --> A              
     e( 20 - 20) =     42.50594  eV     1   --> A              
     e( 21 - 21) =     42.65961  eV     1   --> A              
     e( 22 - 22) =     44.69575  eV     1   --> A              
     e( 23 - 23) =     45.12695  eV     1   --> A              
     e( 24 - 24) =     49.19159  eV     1   --> A              
     e( 25 - 25) =     50.38591  eV     1   --> A              
     e( 26 - 26) =     55.47108  eV     1   --> A              
     e( 27 - 27) =     56.41461  eV     1   --> A              
     e( 28 - 28) =     62.10290  eV     1   --> A              
     e( 29 - 29) =     62.41535  eV     1   --> A              
     e( 30 - 30) =     62.50621  eV     1   --> A              
     e( 31 - 31) =     62.92343  eV     1   --> A              
     e( 32 - 32) =     63.38592  eV     1   --> A              

 **************************************************************************

 **************************************************************************

                    xk=(   0.21667,   0.37528,   0.00000  )

     Band symmetry, C_1 (1)     point group:

     e(  1 -  1) =    -11.53467  eV     1   --> A              
     e(  2 -  2) =     -4.75525  eV     1   --> A              
     e(  3 -  3) =     -3.23062  eV     1   --> A              
     e(  4 -  4) =      1.00395  eV     1   --> A              
     e(  5 -  5) =      8.96560  eV     1   --> A              
     e(  6 -  6) =     11.69167  eV     1   --> A              
     e(  7 -  7) =     15.91906  eV     1   --> A              
     e(  8 -  8) =     16.82422  eV     1   --> A              
     e(  9 -  9) =     18.96750  eV     1   --> A              
     e( 10 - 10) =     22.72646  eV     1   --> A              
     e( 11 - 11) =     23.66109  eV     1   --> A              
     e( 12 - 12) =     26.47753  eV     1   --> A              
     e( 13 - 13) =     26.65619  eV     1   --> A              
     e( 14 - 14) =     28.59335  eV     1   --> A              
     e( 15 - 15) =     31.55602  eV     1   --> A              
     e( 16 - 16) =     34.46681  eV     1   --> A              
     e( 17 - 17) =     39.49847  eV     1   --> A              
     e( 18 - 18) =     41.53181  eV     1   --> A              
     e( 19 - 19) =     41.76533  eV     1   --> A              
     e( 20 - 20) =     42.63359  eV     1   --> A              
     e( 21 - 21) =     42.82984  eV     1   --> A              
     e( 22 - 22) =     44.57535  eV     1   --> A              
     e( 23 - 23) =     45.27414  eV     1   --> A              
     e( 24 - 24) =     48.85615  eV     1   --> A              
     e( 25 - 25) =     50.38069  eV     1   --> A              
     e( 26 - 26) =     54.77612  eV     1   --> A              
     e( 27 - 27) =     56.66842  eV     1   --> A              
     e( 28 - 28) =     61.80315  eV     1   --> A              
     e( 29 - 29) =     62.17926  eV     1   --> A              
     e( 30 - 30) =     62.37900  eV     1   --> A              
     e( 31 - 31) =     62.79916  eV     1   --> A              
     e( 32 - 32) =     62.92227  eV     1   --> A              

 **************************************************************************

 **************************************************************************

                    xk=(   0.20833,   0.36084,   0.00000  )

     Band symmetry, C_1 (1)     point group:

     e(  1 -  1) =    -11.77377  eV     1   --> A              
     e(  2 -  2) =     -4.47987  eV     1   --> A              
     e(  3 -  3) =     -2.97444  eV     1   --> A              
     e(  4 -  4) =      0.74203  eV     1   --> A              
     e(  5 -  5) =      9.32014  eV     1   --> A              
     e(  6 -  6) =     11.36806  eV     1   --> A              
     e(  7 -  7) =     15.70739  eV     1   --> A              
     e(  8 -  8) =     16.73529  eV     1   --> A              
     e(  9 -  9) =     19.24783  eV     1   --> A              
     e( 10 - 10) =     22.82574  eV     1   --> A              
     e( 11 - 11) =     24.03800  eV     1   --> A              
     e( 12 - 12) =     26.29484  eV     1   --> A              
     e( 13 - 13) =     26.49610  eV     1   --> A              
     e( 14 - 14) =     28.75882  eV     1   --> A              
     e( 15 - 15) =     31.60283  eV     1   --> A              
     e( 16 - 16) =     34.29589  eV     1   --> A              
     e( 17 - 17) =     39.19798  eV     1   --> A              
     e( 18 - 18) =     41.60481  eV     1   --> A              
     e( 19 - 19) =     41.94442  eV     1   --> A              
     e( 20 - 20) =     42.53121  eV     1   --> A              
     e( 21 - 21) =     43.18595  eV     1   --> A              
     e( 22 - 22) =     44.53469  eV     1   --> A              
     e( 23 - 23) =     45.54595  eV     1   --> A              
     e( 24 - 24) =     48.55603  eV     1   --> A              
     e( 25 - 25) =     50.40342  eV     1   --> A              
     e( 26 - 26) =     54.05438  eV     1   --> A              
     e( 27 - 27) =     56.75469  eV     1   --> A              
     e( 28 - 28) =     61.34609  eV     1   --> A              
     e( 29 - 29) =     61.42115  eV     1   --> A              
     e( 30 - 30) =     62.05126  eV     1   --> A              
     e( 31 - 31) =     62.33134  eV     1   --> A              
     e( 32 - 32) =     62.74833  eV     1   --> A              

 **************************************************************************

 **************************************************************************

                    xk=(   0.20000,   0.34641,   0.00000  )

     Band symmetry, C_1 (1)     point group:

     e(  1 -  1) =    -12.00478  eV     1   --> A              
     e(  2 -  2) =     -4.19855  eV     1   --> A              
     e(  3 -  3) =     -2.71519  eV     1   --> A              
     e(  4 -  4) =      0.48679  eV     1   --> A              
     e(  5 -  5) =      9.67917  eV     1   --> A              
     e(  6 -  6) =     11.05613  eV     1   --> A              
     e(  7 -  7) =     15.49845  eV     1   --> A              
     e(  8 -  8) =     16.64124  eV     1   --> A              
     e(  9 -  9) =     19.52477  eV     1   --> A              
     e( 10 - 10) =     22.82822  eV     1   --> A              
     e( 11 - 11) =     24.42983  eV     1   --> A              
     e( 12 - 12) =     26.21830  eV     1   --> A              
     e( 13 - 13) =     26.36434  eV     1   --> A              
     e( 14 - 14) =     28.87759  eV     1   --> A              
     e( 15 - 15) =     31.63776  eV     1   --> A              
     e( 16 - 16) =     34.12109  eV     1   --> A              
     e( 17 - 17) =     38.89984  eV     1   --> A              
     e( 18 - 18) =     41.71163  eV     1   --> A              
     e( 19 - 19) =     42.04122  eV     1   --> A              
     e( 20 - 20) =     42.38623  eV     1   --> A              
     e( 21 - 21) =     43.56568  eV     1   --> A              
     e( 22 - 22) =     44.59343  eV     1   --> A              
     e( 23 - 23) =     45.90885  eV     1   --> A              
     e( 24 - 24) =     48.29692  eV     1   --> A              
     e( 25 - 25) =     50.45021  eV     1   --> A              
     e( 26 - 26) =     53.31070  eV     1   --> A              
     e( 27 - 27) =     56.68557  eV     1   --> A              
     e( 28 - 28) =     60.49112  eV     1   --> A              
     e( 29 - 29) =     60.93195  eV     1   --> A              
     e( 30 - 30) =     61.60628  eV     1   --> A              
     e( 31 - 31) =     61.79039  eV     1   --> A              
     e( 32 - 32) =     62.67183  eV     1   --> A              

 **************************************************************************

 **************************************************************************

                    xk=(   0.19167,   0.33198,   0.00000  )

     Band symmetry, C_1 (1)     point group:

     e(  1 -  1) =    -12.22754  eV     1   --> A              
     e(  2 -  2) =     -3.91157  eV     1   --> A              
     e(  3 -  3) =     -2.45369  eV     1   --> A              
     e(  4 -  4) =      0.23880  eV     1   --> A              
     e(  5 -  5) =     10.04224  eV     1   --> A              
     e(  6 -  6) =     10.75610  eV     1   --> A              
     e(  7 -  7) =     15.29382  eV     1   --> A              
     e(  8 -  8) =     16.54267  eV     1   --> A              
     e(  9 -  9) =     19.79314  eV     1   --> A              
     e( 10 - 10) =     22.71650  eV     1   --> A              
     e( 11 - 11) =     24.83369  eV     1   --> A              
     e( 12 - 12) =     26.26609  eV     1   --> A              
     e( 13 - 13) =     26.26689  eV     1   --> A              
     e( 14 - 14) =     28.95454  eV     1   --> A              
     e( 15 - 15) =     31.66231  eV     1   --> A              
     e( 16 - 16) =     33.93636  eV     1   --> A              
     e( 17 - 17) =     38.60815  eV     1   --> A              
     e( 18 - 18) =     41.84961  eV     1   --> A              
     e( 19 - 19) =     42.05147  eV     1   --> A              
     e( 20 - 20) =     42.22408  eV     1   --> A              
     e( 21 - 21) =     43.96370  eV     1   --> A              
     e( 22 - 22) =     44.75570  eV     1   --> A              
     e( 23 - 23) =     46.33601  eV     1   --> A              
     e( 24 - 24) =     48.08293  eV     1   --> A              
     e( 25 - 25) =     50.51655  eV     1   --> A              
     e( 26 - 26) =     52.55158  eV     1   --> A              
     e( 27 - 27) =     56.46325  eV     1   --> A              
     e( 28 - 28) =     59.69931  eV     1   --> A              
     e( 29 - 29) =     60.32187  eV     1   --> A              
     e( 30 - 30) =     61.06276  eV     1   --> A              
     e( 31 - 31) =     61.29587  eV     1   --> A              
     e( 32 - 32) =     62.53311  eV     1   --> A              

 **************************************************************************

 **************************************************************************

                    xk=(   0.18333,   0.31754,   0.00000  )

     Band symmetry, C_1 (1)     point group:

     e(  1 -  1) =    -12.44176  eV     1   --> A              
     e(  2 -  2) =     -3.61934  eV     1   --> A              
     e(  3 -  3) =     -2.19082  eV     1   --> A              
     e(  4 -  4) =     -0.00142  eV     1   --> A              
     e(  5 -  5) =     10.40804  eV     1   --> A              
     e(  6 -  6) =     10.46817  eV     1   --> A              
     e(  7 -  7) =     15.09521  eV     1   --> A              
     e(  8 -  8) =     16.43989  eV     1   --> A              
     e(  9 -  9) =     20.04716  eV     1   --> A              
     e( 10 - 10) =     22.49774  eV     1   --> A              
     e( 11 - 11) =     25.24650  eV     1   --> A              
     e( 12 - 12) =     26.20702  eV     1   --> A              
     e( 13 - 13) =     26.43577  eV     1   --> A              
     e( 14 - 14) =     28.99583  eV     1   --> A              
     e( 15 - 15) =     31.67818  eV     1   --> A              
     e( 16 - 16) =     33.73746  eV     1   --> A              
     e( 17 - 17) =     38.32519  eV     1   --> A              
     e( 18 - 18) =     41.98966  eV     1   --> A              
     e( 19 - 19) =     42.01502  eV     1   --> A              
     e( 20 - 20) =     42.05908  eV     1   --> A              
     e( 21 - 21) =     44.37619  eV     1   --> A              
     e( 22 - 22) =     45.00667  eV     1   --> A              
     e( 23 - 23) =     46.80990  eV     1   --> A              
     e( 24 - 24) =     47.91730  eV     1   --> A              
     e( 25 - 25) =     50.59727  eV     1   --> A              
     e( 26 - 26) =     51.78400  eV     1   --> A              
     e( 27 - 27) =     56.07675  eV     1   --> A              
     e( 28 - 28) =     59.01978  eV     1   --> A              
     e( 29 - 29) =     59.60492  eV     1   --> A              
     e( 30 - 30) =     60.42619  eV     1   --> A              
     e( 31 - 31) =     60.84406  eV     1   --> A              
     e( 32 - 32) =     62.33249  eV     1   --> A              

 **************************************************************************

 **************************************************************************

                    xk=(   0.17500,   0.30311,   0.00000  )

     Band symmetry, C_1 (1)     point group:

     e(  1 -  1) =    -12.64726  eV     1   --> A              
     e(  2 -  2) =     -3.32207  eV     1   --> A              
     e(  3 -  3) =     -1.92727  eV     1   --> A              
     e(  4 -  4) =     -0.23324  eV     1   --> A              
     e(  5 -  5) =     10.19252  eV     1   --> A              
     e(  6 -  6) =     10.77645  eV     1   --> A              
     e(  7 -  7) =     14.90368  eV     1   --> A              
     e(  8 -  8) =     16.33296  eV     1   --> A              
     e(  9 -  9) =     20.28076  eV     1   --> A              
     e( 10 - 10) =     22.19661  eV     1   --> A              
     e( 11 - 11) =     25.66436  eV     1   --> A              
     e( 12 - 12) =     26.19349  eV     1   --> A              
     e( 13 - 13) =     26.70300  eV     1   --> A              
     e( 14 - 14) =     29.00870  eV     1   --> A              
     e( 15 - 15) =     31.68794  eV     1   --> A              
     e( 16 - 16) =     33.52283  eV     1   --> A              
     e( 17 - 17) =     38.05271  eV     1   --> A              
     e( 18 - 18) =     41.87822  eV     1   --> A              
     e( 19 - 19) =     41.89784  eV     1   --> A              
     e( 20 - 20) =     42.20293  eV     1   --> A              
     e( 21 - 21) =     44.79982  eV     1   --> A              
     e( 22 - 22) =     45.32423  eV     1   --> A              
     e( 23 - 23) =     47.31701  eV     1   --> A              
     e( 24 - 24) =     47.80285  eV     1   --> A              
     e( 25 - 25) =     50.68621  eV     1   --> A              
     e( 26 - 26) =     51.01577  eV     1   --> A              
     e( 27 - 27) =     55.52193  eV     1   --> A              
     e( 28 - 28) =     58.48154  eV     1   --> A              
     e( 29 - 29) =     58.81501  eV     1   --> A              
     e( 30 - 30) =     59.71163  eV     1   --> A              
     e( 31 - 31) =     60.43138  eV     1   --> A              
     e( 32 - 32) =     62.09025  eV     1   --> A              

 **************************************************************************

 **************************************************************************

                    xk=(   0.16667,   0.28868,   0.00000  )

     Band symmetry, C_1 (1)     point group:

     e(  1 -  1) =    -12.84392  eV     1   --> A              
     e(  2 -  2) =     -3.02079  eV     1   --> A              
     e(  3 -  3) =     -1.66424  eV     1   --> A              
     e(  4 -  4) =     -0.45634  eV     1   --> A              
     e(  5 -  5) =      9.92923  eV     1   --> A              
     e(  6 -  6) =     11.14598  eV     1   --> A              
     e(  7 -  7) =     14.72005  eV     1   --> A              
     e(  8 -  8) =     16.22143  eV     1   --> A              
     e(  9 -  9) =     20.48801  eV     1   --> A              
     e( 10 - 10) =     21.84015  eV     1   --> A              
     e( 11 - 11) =     26.08196  eV     1   --> A              
     e( 12 - 12) =     26.23113  eV     1   --> A              
     e( 13 - 13) =     27.04417  eV     1   --> A              
     e( 14 - 14) =     29.00041  eV     1   --> A              
     e( 15 - 15) =     31.69374  eV     1   --> A              
     e( 16 - 16) =     33.29403  eV     1   --> A              
     e( 17 - 17) =     37.79160  eV     1   --> A              
     e( 18 - 18) =     41.73681  eV     1   --> A              
     e( 19 - 19) =     41.74218  eV     1   --> A              
     e( 20 - 20) =     42.40672  eV     1   --> A              
     e( 21 - 21) =     45.23089  eV     1   --> A              
     e( 22 - 22) =     45.68775  eV     1   --> A              
     e( 23 - 23) =     47.70320  eV     1   --> A              
     e( 24 - 24) =     47.88309  eV     1   --> A              
     e( 25 - 25) =     50.25576  eV     1   --> A              
     e( 26 - 26) =     50.77518  eV     1   --> A              
     e( 27 - 27) =     54.82596  eV     1   --> A              
     e( 28 - 28) =     57.98835  eV     1   --> A              
     e( 29 - 29) =     58.07540  eV     1   --> A              
     e( 30 - 30) =     58.94231  eV     1   --> A              
     e( 31 - 31) =     60.05446  eV     1   --> A              
     e( 32 - 32) =     61.82829  eV     1   --> A              

 **************************************************************************

 **************************************************************************

                    xk=(   0.15833,   0.27424,   0.00000  )

     Band symmetry, C_1 (1)     point group:

     e(  1 -  1) =    -13.03168  eV     1   --> A              
     e(  2 -  2) =     -2.71572  eV     1   --> A              
     e(  3 -  3) =     -1.40254  eV     1   --> A              
     e(  4 -  4) =     -0.67052  eV     1   --> A              
     e(  5 -  5) =      9.67842  eV     1   --> A              
     e(  6 -  6) =     11.51545  eV     1   --> A              
     e(  7 -  7) =     14.54496  eV     1   --> A              
     e(  8 -  8) =     16.10476  eV     1   --> A              
     e(  9 -  9) =     20.66395  eV     1   --> A              
     e( 10 - 10) =     21.45028  eV     1   --> A              
     e( 11 - 11) =     26.32458  eV     1   --> A              
     e( 12 - 12) =     26.49195  eV     1   --> A              
     e( 13 - 13) =     27.44026  eV     1   --> A              
     e( 14 - 14) =     28.97895  eV     1   --> A              
     e( 15 - 15) =     31.69802  eV     1   --> A              
     e( 16 - 16) =     33.05655  eV     1   --> A              
     e( 17 - 17) =     37.54260  eV     1   --> A              
     e( 18 - 18) =     41.57928  eV     1   --> A              
     e( 19 - 19) =     41.59183  eV     1   --> A              
     e( 20 - 20) =     42.61718  eV     1   --> A              
     e( 21 - 21) =     45.66467  eV     1   --> A              
     e( 22 - 22) =     46.08322  eV     1   --> A              
     e( 23 - 23) =     47.68993  eV     1   --> A              
     e( 24 - 24) =     48.42586  eV     1   --> A              
     e( 25 - 25) =     49.51486  eV     1   --> A              
     e( 26 - 26) =     50.85285  eV     1   --> A              
     e( 27 - 27) =     54.03816  eV     1   --> A              
     e( 28 - 28) =     57.15682  eV     1   --> A              
     e( 29 - 29) =     57.76611  eV     1   --> A              
     e( 30 - 30) =     58.14326  eV     1   --> A              
     e( 31 - 31) =     59.71029  eV     1   --> A              
     e( 32 - 32) =     61.56247  eV     1   --> A              

 **************************************************************************

 **************************************************************************

                    xk=(   0.15000,   0.25981,   0.00000  )

     Band symmetry, C_1 (1)     point group:

     e(  1 -  1) =    -13.21028  eV     1   --> A              
     e(  2 -  2) =     -2.40792  eV     1   --> A              
     e(  3 -  3) =     -1.14346  eV     1   --> A              
     e(  4 -  4) =     -0.87509  eV     1   --> A              
     e(  5 -  5) =      9.44019  eV     1   --> A              
     e(  6 -  6) =     11.88355  eV     1   --> A              
     e(  7 -  7) =     14.37900  eV     1   --> A              
     e(  8 -  8) =     15.98199  eV     1   --> A              
     e(  9 -  9) =     20.80545  eV     1   --> A              
     e( 10 - 10) =     21.04328  eV     1   --> A              
     e( 11 - 11) =     26.47701  eV     1   --> A              
     e( 12 - 12) =     26.88354  eV     1   --> A              
     e( 13 - 13) =     27.87827  eV     1   --> A              
     e( 14 - 14) =     28.95281  eV     1   --> A              
     e( 15 - 15) =     31.70311  eV     1   --> A              
     e( 16 - 16) =     32.82007  eV     1   --> A              
     e( 17 - 17) =     37.30617  eV     1   --> A              
     e( 18 - 18) =     41.41464  eV     1   --> A              
     e( 19 - 19) =     41.44574  eV     1   --> A              
     e( 20 - 20) =     42.82090  eV     1   --> A              
     e( 21 - 21) =     46.09436  eV     1   --> A              
     e( 22 - 22) =     46.50076  eV     1   --> A              
     e( 23 - 23) =     47.69797  eV     1   --> A              
     e( 24 - 24) =     48.80769  eV     1   --> A              
     e( 25 - 25) =     48.99595  eV     1   --> A              
     e( 26 - 26) =     50.90273  eV     1   --> A              
     e( 27 - 27) =     53.20615  eV     1   --> A              
     e( 28 - 28) =     56.35005  eV     1   --> A              
     e( 29 - 29) =     57.33745  eV     1   --> A              
     e( 30 - 30) =     57.52062  eV     1   --> A              
     e( 31 - 31) =     59.39664  eV     1   --> A              
     e( 32 - 32) =     61.30106  eV     1   --> A              

 **************************************************************************

 **************************************************************************

                    xk=(   0.14167,   0.24537,   0.00000  )

     Band symmetry, C_1 (1)     point group:

     e(  1 -  1) =    -13.37966  eV     1   --> A              
     e(  2 -  2) =     -2.09793  eV     1   --> A              
     e(  3 -  3) =     -1.06992  eV     1   --> A              
     e(  4 -  4) =     -0.88773  eV     1   --> A              
     e(  5 -  5) =      9.21462  eV     1   --> A              
     e(  6 -  6) =     12.24892  eV     1   --> A              
     e(  7 -  7) =     14.22303  eV     1   --> A              
     e(  8 -  8) =     15.85225  eV     1   --> A              
     e(  9 -  9) =     20.63125  eV     1   --> A              
     e( 10 - 10) =     20.91170  eV     1   --> A              
     e( 11 - 11) =     26.68887  eV     1   --> A              
     e( 12 - 12) =     27.24051  eV     1   --> A              
     e( 13 - 13) =     28.34963  eV     1   --> A              
     e( 14 - 14) =     28.93139  eV     1   --> A              
     e( 15 - 15) =     31.71178  eV     1   --> A              
     e( 16 - 16) =     32.59921  eV     1   --> A              
     e( 17 - 17) =     37.08310  eV     1   --> A              
     e( 18 - 18) =     41.24868  eV     1   --> A              
     e( 19 - 19) =     41.30303  eV     1   --> A              
     e( 20 - 20) =     42.99756  eV     1   --> A              
     e( 21 - 21) =     46.50820  eV     1   --> A              
     e( 22 - 22) =     46.93381  eV     1   --> A              
     e( 23 - 23) =     47.73115  eV     1   --> A              
     e( 24 - 24) =     48.15569  eV     1   --> A              
     e( 25 - 25) =     49.57148  eV     1   --> A              
     e( 26 - 26) =     50.89909  eV     1   --> A              
     e( 27 - 27) =     52.36771  eV     1   --> A              
     e( 28 - 28) =     55.60162  eV     1   --> A              
     e( 29 - 29) =     56.54673  eV     1   --> A              
     e( 30 - 30) =     57.31733  eV     1   --> A              
     e( 31 - 31) =     59.11142  eV     1   --> A              
     e( 32 - 32) =     61.04868  eV     1   --> A              

 **************************************************************************

 **************************************************************************

                    xk=(   0.13333,   0.23094,   0.00000  )

     Band symmetry, C_1 (1)     point group:

     e(  1 -  1) =    -13.53976  eV     1   --> A              
     e(  2 -  2) =     -1.78639  eV     1   --> A              
     e(  3 -  3) =     -1.25480  eV     1   --> A              
     e(  4 -  4) =     -0.63640  eV     1   --> A              
     e(  5 -  5) =      9.00175  eV     1   --> A              
     e(  6 -  6) =     12.60998  eV     1   --> A              
     e(  7 -  7) =     14.07697  eV     1   --> A              
     e(  8 -  8) =     15.71397  eV     1   --> A              
     e(  9 -  9) =     20.22327  eV     1   --> A              
     e( 10 - 10) =     20.98436  eV     1   --> A              
     e( 11 - 11) =     26.95817  eV     1   --> A              
     e( 12 - 12) =     27.54052  eV     1   --> A              
     e( 13 - 13) =     28.84871  eV     1   --> A              
     e( 14 - 14) =     28.92411  eV     1   --> A              
     e( 15 - 15) =     31.72611  eV     1   --> A              
     e( 16 - 16) =     32.41480  eV     1   --> A              
     e( 17 - 17) =     36.87348  eV     1   --> A              
     e( 18 - 18) =     41.08515  eV     1   --> A              
     e( 19 - 19) =     41.16322  eV     1   --> A              
     e( 20 - 20) =     43.11588  eV     1   --> A              
     e( 21 - 21) =     46.88368  eV     1   --> A              
     e( 22 - 22) =     47.37744  eV     1   --> A              
     e( 23 - 23) =     47.58984  eV     1   --> A              
     e( 24 - 24) =     47.77748  eV     1   --> A              
     e( 25 - 25) =     50.13866  eV     1   --> A              
     e( 26 - 26) =     50.80392  eV     1   --> A              
     e( 27 - 27) =     51.56017  eV     1   --> A              
     e( 28 - 28) =     54.95375  eV     1   --> A              
     e( 29 - 29) =     55.79536  eV     1   --> A              
     e( 30 - 30) =     57.14429  eV     1   --> A              
     e( 31 - 31) =     58.85321  eV     1   --> A              
     e( 32 - 32) =     60.80799  eV     1   --> A              

 **************************************************************************

 **************************************************************************

                    xk=(   0.12500,   0.21651,   0.00000  )

     Band symmetry, C_1 (1)     point group:

     e(  1 -  1) =    -13.69046  eV     1   --> A              
     e(  2 -  2) =     -1.47515  eV     1   --> A              
     e(  3 -  3) =     -1.42931  eV     1   --> A              
     e(  4 -  4) =     -0.39114  eV     1   --> A              
     e(  5 -  5) =      8.80166  eV     1   --> A              
     e(  6 -  6) =     12.96502  eV     1   --> A              
     e(  7 -  7) =     13.94153  eV     1   --> A              
     e(  8 -  8) =     15.56554  eV     1   --> A              
     e(  9 -  9) =     19.82725  eV     1   --> A              
     e( 10 - 10) =     21.02722  eV     1   --> A              
     e( 11 - 11) =     27.28068  eV     1   --> A              
     e( 12 - 12) =     27.75995  eV     1   --> A              
     e( 13 - 13) =     28.93450  eV     1   --> A              
     e( 14 - 14) =     29.37172  eV     1   --> A              
     e( 15 - 15) =     31.74870  eV     1   --> A              
     e( 16 - 16) =     32.29469  eV     1   --> A              
     e( 17 - 17) =     36.67833  eV     1   --> A              
     e( 18 - 18) =     40.92656  eV     1   --> A              
     e( 19 - 19) =     41.02640  eV     1   --> A              
     e( 20 - 20) =     43.13263  eV     1   --> A              
     e( 21 - 21) =     47.15425  eV     1   --> A              
     e( 22 - 22) =     47.17340  eV     1   --> A              
     e( 23 - 23) =     47.82036  eV     1   --> A              
     e( 24 - 24) =     47.82764  eV     1   --> A              
     e( 25 - 25) =     50.57166  eV     1   --> A              
     e( 26 - 26) =     50.67613  eV     1   --> A              
     e( 27 - 27) =     50.83960  eV     1   --> A              
     e( 28 - 28) =     54.45475  eV     1   --> A              
     e( 29 - 29) =     55.11659  eV     1   --> A              
     e( 30 - 30) =     56.99650  eV     1   --> A              
     e( 31 - 31) =     58.62085  eV     1   --> A              
     e( 32 - 32) =     60.58124  eV     1   --> A              

 **************************************************************************

 **************************************************************************

                    xk=(   0.11667,   0.20207,   0.00000  )

     Band symmetry, C_1 (1)     point group:

     e(  1 -  1) =    -13.83172  eV     1   --> A              
     e(  2 -  2) =     -1.59345  eV     1   --> A              
     e(  3 -  3) =     -1.16514  eV     1   --> A              
     e(  4 -  4) =     -0.15297  eV     1   --> A              
     e(  5 -  5) =      8.61438  eV     1   --> A              
     e(  6 -  6) =     13.31224  eV     1   --> A              
     e(  7 -  7) =     13.81661  eV     1   --> A              
     e(  8 -  8) =     15.40534  eV     1   --> A              
     e(  9 -  9) =     19.44959  eV     1   --> A              
     e( 10 - 10) =     21.04473  eV     1   --> A              
     e( 11 - 11) =     27.65097  eV     1   --> A              
     e( 12 - 12) =     27.88865  eV     1   --> A              
     e( 13 - 13) =     28.94778  eV     1   --> A              
     e( 14 - 14) =     29.91598  eV     1   --> A              
     e( 15 - 15) =     31.78145  eV     1   --> A              
     e( 16 - 16) =     32.27069  eV     1   --> A              
     e( 17 - 17) =     36.49798  eV     1   --> A              
     e( 18 - 18) =     40.77462  eV     1   --> A              
     e( 19 - 19) =     40.89306  eV     1   --> A              
     e( 20 - 20) =     43.00421  eV     1   --> A              
     e( 21 - 21) =     46.89168  eV     1   --> A              
     e( 22 - 22) =     47.28104  eV     1   --> A              
     e( 23 - 23) =     47.83788  eV     1   --> A              
     e( 24 - 24) =     48.28060  eV     1   --> A              
     e( 25 - 25) =     50.17208  eV     1   --> A              
     e( 26 - 26) =     50.30559  eV     1   --> A              
     e( 27 - 27) =     51.14553  eV     1   --> A              
     e( 28 - 28) =     54.13656  eV     1   --> A              
     e( 29 - 29) =     54.56354  eV     1   --> A              
     e( 30 - 30) =     56.87126  eV     1   --> A              
     e( 31 - 31) =     58.41347  eV     1   --> A              
     e( 32 - 32) =     60.37116  eV     1   --> A              

 **************************************************************************

 **************************************************************************

                    xk=(   0.10833,   0.18764,   0.00000  )

     Band symmetry, C_1 (1)     point group:

     e(  1 -  1) =    -13.96356  eV     1   --> A              
     e(  2 -  2) =     -1.74714  eV     1   --> A              
     e(  3 -  3) =     -0.85812  eV     1   --> A              
     e(  4 -  4) =      0.07659  eV     1   --> A              
     e(  5 -  5) =      8.43994  eV     1   --> A              
     e(  6 -  6) =     13.64935  eV     1   --> A              
     e(  7 -  7) =     13.70216  eV     1   --> A              
     e(  8 -  8) =     15.23156  eV     1   --> A              
     e(  9 -  9) =     19.09527  eV     1   --> A              
     e( 10 - 10) =     21.04204  eV     1   --> A              
     e( 11 - 11) =     27.94033  eV     1   --> A              
     e( 12 - 12) =     28.06272  eV     1   --> A              
     e( 13 - 13) =     28.93073  eV     1   --> A              
     e( 14 - 14) =     30.47962  eV     1   --> A              
     e( 15 - 15) =     31.82572  eV     1   --> A              
     e( 16 - 16) =     32.36849  eV     1   --> A              
     e( 17 - 17) =     36.33304  eV     1   --> A              
     e( 18 - 18) =     40.63053  eV     1   --> A              
     e( 19 - 19) =     40.76387  eV     1   --> A              
     e( 20 - 20) =     42.71533  eV     1   --> A              
     e( 21 - 21) =     46.81578  eV     1   --> A              
     e( 22 - 22) =     47.08326  eV     1   --> A              
     e( 23 - 23) =     47.80170  eV     1   --> A              
     e( 24 - 24) =     48.73217  eV     1   --> A              
     e( 25 - 25) =     49.61588  eV     1   --> A              
     e( 26 - 26) =     50.08244  eV     1   --> A              
     e( 27 - 27) =     51.48150  eV     1   --> A              
     e( 28 - 28) =     53.99002  eV     1   --> A              
     e( 29 - 29) =     54.22073  eV     1   --> A              
     e( 30 - 30) =     56.76826  eV     1   --> A              
     e( 31 - 31) =     58.23062  eV     1   --> A              
     e( 32 - 32) =     60.18137  eV     1   --> A              

 **************************************************************************

 **************************************************************************

                    xk=(   0.10000,   0.17321,   0.00000  )

     Band symmetry, C_1 (1)     point group:

     e(  1 -  1) =    -14.08576  eV     1   --> A              
     e(  2 -  2) =     -1.88988  eV     1   --> A              
     e(  3 -  3) =     -0.55522  eV     1   --> A              
     e(  4 -  4) =      0.29686  eV     1   --> A              
     e(  5 -  5) =      8.27839  eV     1   --> A              
     e(  6 -  6) =     13.59833  eV     1   --> A              
     e(  7 -  7) =     13.97511  eV     1   --> A              
     e(  8 -  8) =     15.04442  eV     1   --> A              
     e(  9 -  9) =     18.77020  eV     1   --> A              
     e( 10 - 10) =     21.02441  eV     1   --> A              
     e( 11 - 11) =     27.94086  eV     1   --> A              
     e( 12 - 12) =     28.51036  eV     1   --> A              
     e( 13 - 13) =     28.85773  eV     1   --> A              
     e( 14 - 14) =     31.06121  eV     1   --> A              
     e( 15 - 15) =     31.88454  eV     1   --> A              
     e( 16 - 16) =     32.59413  eV     1   --> A              
     e( 17 - 17) =     36.18478  eV     1   --> A              
     e( 18 - 18) =     40.49516  eV     1   --> A              
     e( 19 - 19) =     40.63970  eV     1   --> A              
     e( 20 - 20) =     42.29396  eV     1   --> A              
     e( 21 - 21) =     46.57849  eV     1   --> A              
     e( 22 - 22) =     46.89974  eV     1   --> A              
     e( 23 - 23) =     47.67942  eV     1   --> A              
     e( 24 - 24) =     48.93803  eV     1   --> A              
     e( 25 - 25) =     49.18525  eV     1   --> A              
     e( 26 - 26) =     50.17184  eV     1   --> A              
     e( 27 - 27) =     51.62240  eV     1   --> A              
     e( 28 - 28) =     53.97567  eV     1   --> A              
     e( 29 - 29) =     54.17184  eV     1   --> A              
     e( 30 - 30) =     56.68926  eV     1   --> A              
     e( 31 - 31) =     58.07291  eV     1   --> A              
     e( 32 - 32) =     60.01734  eV     1   --> A              

 **************************************************************************

 **************************************************************************

                    xk=(   0.09167,   0.15877,   0.00000  )

     Band symmetry, C_1 (1)     point group:

     e(  1 -  1) =    -14.19838  eV     1   --> A              
     e(  2 -  2) =     -2.02173  eV     1   --> A              
     e(  3 -  3) =     -0.25898  eV     1   --> A              
     e(  4 -  4) =      0.50571  eV     1   --> A              
     e(  5 -  5) =      8.12973  eV     1   --> A              
     e(  6 -  6) =     13.50479  eV     1   --> A              
     e(  7 -  7) =     14.28638  eV     1   --> A              
     e(  8 -  8) =     14.84376  eV     1   --> A              
     e(  9 -  9) =     18.47690  eV     1   --> A              
     e( 10 - 10) =     20.99611  eV     1   --> A              
     e( 11 - 11) =     27.91122  eV     1   --> A              
     e( 12 - 12) =     28.72822  eV     1   --> A              
     e( 13 - 13) =     28.98725  eV     1   --> A              
     e( 14 - 14) =     31.65964  eV     1   --> A              
     e( 15 - 15) =     31.95831  eV     1   --> A              
     e( 16 - 16) =     32.93200  eV     1   --> A              
     e( 17 - 17) =     36.05399  eV     1   --> A              
     e( 18 - 18) =     40.36910  eV     1   --> A              
     e( 19 - 19) =     40.52132  eV     1   --> A              
     e( 20 - 20) =     41.78622  eV     1   --> A              
     e( 21 - 21) =     45.89115  eV     1   --> A              
     e( 22 - 22) =     47.09411  eV     1   --> A              
     e( 23 - 23) =     47.44209  eV     1   --> A              
     e( 24 - 24) =     48.19697  eV     1   --> A              
     e( 25 - 25) =     49.61961  eV     1   --> A              
     e( 26 - 26) =     50.44639  eV     1   --> A              
     e( 27 - 27) =     51.60988  eV     1   --> A              
     e( 28 - 28) =     54.05150  eV     1   --> A              
     e( 29 - 29) =     54.39086  eV     1   --> A              
     e( 30 - 30) =     56.63591  eV     1   --> A              
     e( 31 - 31) =     57.94030  eV     1   --> A              
     e( 32 - 32) =     59.88669  eV     1   --> A              

 **************************************************************************

 **************************************************************************

                    xk=(   0.08333,   0.14434,   0.00000  )

     Band symmetry, C_1 (1)     point group:

     e(  1 -  1) =    -14.30131  eV     1   --> A              
     e(  2 -  2) =     -2.14246  eV     1   --> A              
     e(  3 -  3) =      0.02870  eV     1   --> A              
     e(  4 -  4) =      0.70211  eV     1   --> A              
     e(  5 -  5) =      7.99401  eV     1   --> A              
     e(  6 -  6) =     13.42167  eV     1   --> A              
     e(  7 -  7) =     14.58149  eV     1   --> A              
     e(  8 -  8) =     14.63162  eV     1   --> A              
     e(  9 -  9) =     18.21759  eV     1   --> A              
     e( 10 - 10) =     20.96104  eV     1   --> A              
     e( 11 - 11) =     27.86406  eV     1   --> A              
     e( 12 - 12) =     28.55922  eV     1   --> A              
     e( 13 - 13) =     29.48749  eV     1   --> A              
     e( 14 - 14) =     32.04897  eV     1   --> A              
     e( 15 - 15) =     32.27400  eV     1   --> A              
     e( 16 - 16) =     33.35693  eV     1   --> A              
     e( 17 - 17) =     35.94272  eV     1   --> A              
     e( 18 - 18) =     40.25280  eV     1   --> A              
     e( 19 - 19) =     40.40938  eV     1   --> A              
     e( 20 - 20) =     41.23381  eV     1   --> A              
     e( 21 - 21) =     45.12129  eV     1   --> A              
     e( 22 - 22) =     47.07806  eV     1   --> A              
     e( 23 - 23) =     47.35765  eV     1   --> A              
     e( 24 - 24) =     47.41148  eV     1   --> A              
     e( 25 - 25) =     50.04251  eV     1   --> A              
     e( 26 - 26) =     50.80276  eV     1   --> A              
     e( 27 - 27) =     51.56301  eV     1   --> A              
     e( 28 - 28) =     54.18895  eV     1   --> A              
     e( 29 - 29) =     54.75498  eV     1   --> A              
     e( 30 - 30) =     56.61208  eV     1   --> A              
     e( 31 - 31) =     57.83361  eV     1   --> A              
     e( 32 - 32) =     59.80047  eV     1   --> A              

 **************************************************************************

 **************************************************************************

                    xk=(   0.07500,   0.12990,   0.00000  )

     Band symmetry, C_1 (1)     point group:

     e(  1 -  1) =    -14.39456  eV     1   --> A              
     e(  2 -  2) =     -2.25200  eV     1   --> A              
     e(  3 -  3) =      0.30504  eV     1   --> A              
     e(  4 -  4) =      0.88473  eV     1   --> A              
     e(  5 -  5) =      7.87121  eV     1   --> A              
     e(  6 -  6) =     13.34854  eV     1   --> A              
     e(  7 -  7) =     14.41137  eV     1   --> A              
     e(  8 -  8) =     14.85792  eV     1   --> A              
     e(  9 -  9) =     17.99241  eV     1   --> A              
     e( 10 - 10) =     20.92230  eV     1   --> A              
     e( 11 - 11) =     27.80507  eV     1   --> A              
     e( 12 - 12) =     28.37213  eV     1   --> A              
     e( 13 - 13) =     30.00467  eV     1   --> A              
     e( 14 - 14) =     32.15675  eV     1   --> A              
     e( 15 - 15) =     32.90349  eV     1   --> A              
     e( 16 - 16) =     33.84548  eV     1   --> A              
     e( 17 - 17) =     35.85352  eV     1   --> A              
     e( 18 - 18) =     40.14655  eV     1   --> A              
     e( 19 - 19) =     40.30432  eV     1   --> A              
     e( 20 - 20) =     40.66476  eV     1   --> A              
     e( 21 - 21) =     44.31792  eV     1   --> A              
     e( 22 - 22) =     46.59930  eV     1   --> A              
     e( 23 - 23) =     46.60437  eV     1   --> A              
     e( 24 - 24) =     47.65948  eV     1   --> A              
     e( 25 - 25) =     50.44475  eV     1   --> A              
     e( 26 - 26) =     51.18644  eV     1   --> A              
     e( 27 - 27) =     51.55511  eV     1   --> A              
     e( 28 - 28) =     54.37093  eV     1   --> A              
     e( 29 - 29) =     55.15984  eV     1   --> A              
     e( 30 - 30) =     56.62219  eV     1   --> A              
     e( 31 - 31) =     57.75380  eV     1   --> A              
     e( 32 - 32) =     59.77377  eV     1   --> A              

 **************************************************************************

 **************************************************************************

                    xk=(   0.06667,   0.11547,   0.00000  )

     Band symmetry, C_1 (1)     point group:

     e(  1 -  1) =    -14.47807  eV     1   --> A              
     e(  2 -  2) =     -2.35026  eV     1   --> A              
     e(  3 -  3) =      0.56708  eV     1   --> A              
     e(  4 -  4) =      1.05225  eV     1   --> A              
     e(  5 -  5) =      7.76136  eV     1   --> A              
     e(  6 -  6) =     13.28504  eV     1   --> A              
     e(  7 -  7) =     14.18800  eV     1   --> A              
     e(  8 -  8) =     15.11331  eV     1   --> A              
     e(  9 -  9) =     17.80029  eV     1   --> A              
     e( 10 - 10) =     20.88243  eV     1   --> A              
     e( 11 - 11) =     27.73443  eV     1   --> A              
     e( 12 - 12) =     28.18761  eV     1   --> A              
     e( 13 - 13) =     30.53142  eV     1   --> A              
     e( 14 - 14) =     32.28157  eV     1   --> A              
     e( 15 - 15) =     33.54732  eV     1   --> A              
     e( 16 - 16) =     34.37972  eV     1   --> A              
     e( 17 - 17) =     35.79029  eV     1   --> A              
     e( 18 - 18) =     40.05050  eV     1   --> A              
     e( 19 - 19) =     40.09816  eV     1   --> A              
     e( 20 - 20) =     40.20627  eV     1   --> A              
     e( 21 - 21) =     43.50435  eV     1   --> A              
     e( 22 - 22) =     45.78814  eV     1   --> A              
     e( 23 - 23) =     46.03341  eV     1   --> A              
     e( 24 - 24) =     47.97842  eV     1   --> A              
     e( 25 - 25) =     50.81957  eV     1   --> A              
     e( 26 - 26) =     51.56760  eV     1   --> A              
     e( 27 - 27) =     51.60049  eV     1   --> A              
     e( 28 - 28) =     54.58790  eV     1   --> A              
     e( 29 - 29) =     55.54197  eV     1   --> A              
     e( 30 - 30) =     56.67136  eV     1   --> A              
     e( 31 - 31) =     57.70202  eV     1   --> A              
     e( 32 - 32) =     59.82515  eV     1   --> A              

 **************************************************************************

 **************************************************************************

                    xk=(   0.05833,   0.10104,   0.00000  )

     Band symmetry, C_1 (1)     point group:

     e(  1 -  1) =    -14.55184  eV     1   --> A              
     e(  2 -  2) =     -2.43719  eV     1   --> A              
     e(  3 -  3) =      0.81151  eV     1   --> A              
     e(  4 -  4) =      1.20342  eV     1   --> A              
     e(  5 -  5) =      7.66446  eV     1   --> A              
     e(  6 -  6) =     13.23042  eV     1   --> A              
     e(  7 -  7) =     13.96769  eV     1   --> A              
     e(  8 -  8) =     15.34534  eV     1   --> A              
     e(  9 -  9) =     17.63913  eV     1   --> A              
     e( 10 - 10) =     20.84343  eV     1   --> A              
     e( 11 - 11) =     27.64731  eV     1   --> A              
     e( 12 - 12) =     28.02556  eV     1   --> A              
     e( 13 - 13) =     31.05852  eV     1   --> A              
     e( 14 - 14) =     32.42240  eV     1   --> A              
     e( 15 - 15) =     34.20467  eV     1   --> A              
     e( 16 - 16) =     34.94659  eV     1   --> A              
     e( 17 - 17) =     35.75893  eV     1   --> A              
     e( 18 - 18) =     39.54775  eV     1   --> A              
     e( 19 - 19) =     39.96466  eV     1   --> A              
     e( 20 - 20) =     40.11485  eV     1   --> A              
     e( 21 - 21) =     42.69278  eV     1   --> A              
     e( 22 - 22) =     44.97089  eV     1   --> A              
     e( 23 - 23) =     45.41091  eV     1   --> A              
     e( 24 - 24) =     48.29864  eV     1   --> A              
     e( 25 - 25) =     51.16024  eV     1   --> A              
     e( 26 - 26) =     51.68760  eV     1   --> A              
     e( 27 - 27) =     51.92662  eV     1   --> A              
     e( 28 - 28) =     54.83398  eV     1   --> A              
     e( 29 - 29) =     55.86234  eV     1   --> A              
     e( 30 - 30) =     56.76454  eV     1   --> A              
     e( 31 - 31) =     57.67938  eV     1   --> A              
     e( 32 - 32) =     59.97256  eV     1   --> A              

[...]
     e(  5 -  5) =      6.13076  eV     1   --> A              
     e(  6 -  6) =     15.41742  eV     1   --> A              
     e(  7 -  7) =     15.62451  eV     1   --> A              
     e(  8 -  8) =     15.91189  eV     1   --> A              
     e(  9 -  9) =     17.61487  eV     1   --> A              
     e( 10 - 10) =     22.35287  eV     1   --> A              
     e( 11 - 11) =     23.23181  eV     1   --> A              
     e( 12 - 12) =     26.04395  eV     1   --> A              
     e( 13 - 13) =     28.49759  eV     1   --> A              
     e( 14 - 14) =     28.66909  eV     1   --> A              
     e( 15 - 15) =     29.86813  eV     1   --> A              
     e( 16 - 16) =     36.85125  eV     1   --> A              
     e( 17 - 17) =     37.97118  eV     1   --> A              
     e( 18 - 18) =     38.79386  eV     1   --> A              
     e( 19 - 19) =     40.73673  eV     1   --> A              
     e( 20 - 20) =     40.88659  eV     1   --> A              
     e( 21 - 21) =     43.74115  eV     1   --> A              
     e( 22 - 22) =     47.69015  eV     1   --> A              
     e( 23 - 23) =     47.69275  eV     1   --> A              
     e( 24 - 24) =     50.80213  eV     1   --> A              
     e( 25 - 25) =     51.61865  eV     1   --> A              
     e( 26 - 26) =     55.43783  eV     1   --> A              
     e( 27 - 27) =     57.62242  eV     1   --> A              
     e( 28 - 28) =     58.40307  eV     1   --> A              
     e( 29 - 29) =     59.63966  eV     1   --> A              
     e( 30 - 30) =     62.01812  eV     1   --> A              
     e( 31 - 31) =     62.07382  eV     1   --> A              
     e( 32 - 32) =     63.33125  eV     1   --> A              

 **************************************************************************

 **************************************************************************

                    xk=(   0.21667,   0.57735,   0.00000  )

     Band symmetry, C_1 (1)     point group:

     e(  1 -  1) =     -8.83224  eV     1   --> A              
     e(  2 -  2) =     -7.86381  eV     1   --> A              
     e(  3 -  3) =     -4.40323  eV     1   --> A              
     e(  4 -  4) =      3.46078  eV     1   --> A              
     e(  5 -  5) =      6.02550  eV     1   --> A              
     e(  6 -  6) =     15.74461  eV     1   --> A              
     e(  7 -  7) =     15.79651  eV     1   --> A              
     e(  8 -  8) =     16.08759  eV     1   --> A              
     e(  9 -  9) =     17.35450  eV     1   --> A              
     e( 10 - 10) =     22.16072  eV     1   --> A              
     e( 11 - 11) =     22.70835  eV     1   --> A              
     e( 12 - 12) =     25.69621  eV     1   --> A              
     e( 13 - 13) =     28.69523  eV     1   --> A              
     e( 14 - 14) =     28.78634  eV     1   --> A              
     e( 15 - 15) =     30.00362  eV     1   --> A              
     e( 16 - 16) =     36.94226  eV     1   --> A              
     e( 17 - 17) =     38.00815  eV     1   --> A              
     e( 18 - 18) =     39.42051  eV     1   --> A              
     e( 19 - 19) =     40.41195  eV     1   --> A              
     e( 20 - 20) =     41.23053  eV     1   --> A              
     e( 21 - 21) =     43.85409  eV     1   --> A              
     e( 22 - 22) =     47.20507  eV     1   --> A              
     e( 23 - 23) =     48.32792  eV     1   --> A              
     e( 24 - 24) =     50.23841  eV     1   --> A              
     e( 25 - 25) =     51.23923  eV     1   --> A              
     e( 26 - 26) =     54.84076  eV     1   --> A              
     e( 27 - 27) =     57.86159  eV     1   --> A              
     e( 28 - 28) =     58.22455  eV     1   --> A              
     e( 29 - 29) =     60.18376  eV     1   --> A              
     e( 30 - 30) =     62.09152  eV     1   --> A              
     e( 31 - 31) =     62.19633  eV     1   --> A              
     e( 32 - 32) =     63.22141  eV     1   --> A              

 **************************************************************************

 **************************************************************************

                    xk=(   0.23333,   0.57735,   0.00000  )

     Band symmetry, C_1 (1)     point group:

     e(  1 -  1) =     -8.71849  eV     1   --> A              
     e(  2 -  2) =     -7.78530  eV     1   --> A              
     e(  3 -  3) =     -4.70483  eV     1   --> A              
     e(  4 -  4) =      3.61973  eV     1   --> A              
     e(  5 -  5) =      5.90349  eV     1   --> A              
     e(  6 -  6) =     15.87106  eV     1   --> A              
     e(  7 -  7) =     16.05802  eV     1   --> A              
     e(  8 -  8) =     16.36695  eV     1   --> A              
     e(  9 -  9) =     17.12540  eV     1   --> A              
     e( 10 - 10) =     21.97806  eV     1   --> A              
     e( 11 - 11) =     22.22889  eV     1   --> A              
     e( 12 - 12) =     25.35719  eV     1   --> A              
     e( 13 - 13) =     28.87611  eV     1   --> A              
     e( 14 - 14) =     28.91113  eV     1   --> A              
     e( 15 - 15) =     30.09511  eV     1   --> A              
     e( 16 - 16) =     37.04388  eV     1   --> A              
     e( 17 - 17) =     38.05684  eV     1   --> A              
     e( 18 - 18) =     40.08794  eV     1   --> A              
     e( 19 - 19) =     40.12481  eV     1   --> A              
     e( 20 - 20) =     41.25262  eV     1   --> A              
     e( 21 - 21) =     44.29168  eV     1   --> A              
     e( 22 - 22) =     46.72553  eV     1   --> A              
     e( 23 - 23) =     48.97751  eV     1   --> A              
     e( 24 - 24) =     49.68083  eV     1   --> A              
     e( 25 - 25) =     50.85173  eV     1   --> A              
     e( 26 - 26) =     54.27851  eV     1   --> A              
     e( 27 - 27) =     57.29885  eV     1   --> A              
     e( 28 - 28) =     58.81497  eV     1   --> A              
     e( 29 - 29) =     60.60907  eV     1   --> A              
     e( 30 - 30) =     62.12070  eV     1   --> A              
     e( 31 - 31) =     62.38376  eV     1   --> A              
     e( 32 - 32) =     63.15684  eV     1   --> A              

 **************************************************************************

 **************************************************************************

                    xk=(   0.25000,   0.57735,   0.00000  )

     Band symmetry, C_1 (1)     point group:

     e(  1 -  1) =     -8.59641  eV     1   --> A              
     e(  2 -  2) =     -7.71453  eV     1   --> A              
     e(  3 -  3) =     -4.99369  eV     1   --> A              
     e(  4 -  4) =      3.79005  eV     1   --> A              
     e(  5 -  5) =      5.76427  eV     1   --> A              
     e(  6 -  6) =     16.00275  eV     1   --> A              
     e(  7 -  7) =     16.23054  eV     1   --> A              
     e(  8 -  8) =     16.69758  eV     1   --> A              
     e(  9 -  9) =     16.92980  eV     1   --> A              
     e( 10 - 10) =     21.80621  eV     1   --> A              
     e( 11 - 11) =     21.80847  eV     1   --> A              
     e( 12 - 12) =     25.03366  eV     1   --> A              
     e( 13 - 13) =     29.03703  eV     1   --> A              
     e( 14 - 14) =     29.04294  eV     1   --> A              
     e( 15 - 15) =     30.14311  eV     1   --> A              
     e( 16 - 16) =     37.15707  eV     1   --> A              
     e( 17 - 17) =     38.11033  eV     1   --> A              
     e( 18 - 18) =     39.87834  eV     1   --> A              
     e( 19 - 19) =     40.78930  eV     1   --> A              
     e( 20 - 20) =     41.06557  eV     1   --> A              
     e( 21 - 21) =     44.95357  eV     1   --> A              
     e( 22 - 22) =     46.25625  eV     1   --> A              
     e( 23 - 23) =     49.13746  eV     1   --> A              
     e( 24 - 24) =     49.60750  eV     1   --> A              
     e( 25 - 25) =     50.45970  eV     1   --> A              
     e( 26 - 26) =     53.76891  eV     1   --> A              
     e( 27 - 27) =     56.72411  eV     1   --> A              
     e( 28 - 28) =     59.37959  eV     1   --> A              
     e( 29 - 29) =     60.89486  eV     1   --> A              
     e( 30 - 30) =     62.10631  eV     1   --> A              
     e( 31 - 31) =     62.63102  eV     1   --> A              
     e( 32 - 32) =     63.12828  eV     1   --> A              

 **************************************************************************

 **************************************************************************

                    xk=(   0.26667,   0.57735,   0.00000  )

     Band symmetry, C_1 (1)     point group:

     e(  1 -  1) =     -8.46601  eV     1   --> A              
     e(  2 -  2) =     -7.65970  eV     1   --> A              
     e(  3 -  3) =     -5.26028  eV     1   --> A              
     e(  4 -  4) =      3.97163  eV     1   --> A              
     e(  5 -  5) =      5.60703  eV     1   --> A              
     e(  6 -  6) =     16.13828  eV     1   --> A              
     e(  7 -  7) =     16.38080  eV     1   --> A              
     e(  8 -  8) =     16.76907  eV     1   --> A              
     e(  9 -  9) =     16.98340  eV     1   --> A              
     e( 10 - 10) =     21.46811  eV     1   --> A              
     e( 11 - 11) =     21.64661  eV     1   --> A              
     e( 12 - 12) =     24.73400  eV     1   --> A              
     e( 13 - 13) =     29.17508  eV     1   --> A              
     e( 14 - 14) =     29.18119  eV     1   --> A              
     e( 15 - 15) =     30.14818  eV     1   --> A              
     e( 16 - 16) =     37.28281  eV     1   --> A              
     e( 17 - 17) =     38.15842  eV     1   --> A              
     e( 18 - 18) =     39.67527  eV     1   --> A              
     e( 19 - 19) =     40.79901  eV     1   --> A              
     e( 20 - 20) =     41.51358  eV     1   --> A              
     e( 21 - 21) =     45.71789  eV     1   --> A              
     e( 22 - 22) =     45.79909  eV     1   --> A              
     e( 23 - 23) =     48.61669  eV     1   --> A              
     e( 24 - 24) =     50.06625  eV     1   --> A              
     e( 25 - 25) =     50.17191  eV     1   --> A              
     e( 26 - 26) =     53.35044  eV     1   --> A              
     e( 27 - 27) =     56.14559  eV     1   --> A              
     e( 28 - 28) =     59.90507  eV     1   --> A              
     e( 29 - 29) =     61.05655  eV     1   --> A              
     e( 30 - 30) =     62.04919  eV     1   --> A              
     e( 31 - 31) =     62.89330  eV     1   --> A              
     e( 32 - 32) =     63.12748  eV     1   --> A              

 **************************************************************************

 **************************************************************************

                    xk=(   0.28333,   0.57735,   0.00000  )

     Band symmetry, C_1 (1)     point group:

     e(  1 -  1) =     -8.32732  eV     1   --> A              
     e(  2 -  2) =     -7.63278  eV     1   --> A              
     e(  3 -  3) =     -5.49058  eV     1   --> A              
     e(  4 -  4) =      4.16437  eV     1   --> A              
     e(  5 -  5) =      5.43232  eV     1   --> A              
     e(  6 -  6) =     16.27599  eV     1   --> A              
     e(  7 -  7) =     16.52029  eV     1   --> A              
     e(  8 -  8) =     16.64441  eV     1   --> A              
     e(  9 -  9) =     17.17738  eV     1   --> A              
     e( 10 - 10) =     21.23210  eV     1   --> A              
     e( 11 - 11) =     21.50114  eV     1   --> A              
     e( 12 - 12) =     24.46923  eV     1   --> A              
     e( 13 - 13) =     29.28729  eV     1   --> A              
     e( 14 - 14) =     29.32522  eV     1   --> A              
     e( 15 - 15) =     30.11216  eV     1   --> A              
     e( 16 - 16) =     37.42221  eV     1   --> A              
     e( 17 - 17) =     38.18566  eV     1   --> A              
     e( 18 - 18) =     39.51780  eV     1   --> A              
     e( 19 - 19) =     40.52878  eV     1   --> A              
     e( 20 - 20) =     42.24734  eV     1   --> A              
     e( 21 - 21) =     45.35593  eV     1   --> A              
     e( 22 - 22) =     46.51496  eV     1   --> A              
     e( 23 - 23) =     48.13053  eV     1   --> A              
     e( 24 - 24) =     49.67437  eV     1   --> A              
     e( 25 - 25) =     50.58653  eV     1   --> A              
     e( 26 - 26) =     53.10478  eV     1   --> A              
     e( 27 - 27) =     55.57155  eV     1   --> A              
     e( 28 - 28) =     60.38056  eV     1   --> A              
     e( 29 - 29) =     61.13379  eV     1   --> A              
     e( 30 - 30) =     61.95027  eV     1   --> A              
     e( 31 - 31) =     63.10683  eV     1   --> A              
     e( 32 - 32) =     63.14673  eV     1   --> A              

 **************************************************************************

 **************************************************************************

                    xk=(   0.30000,   0.57735,   0.00000  )

     Band symmetry, C_1 (1)     point group:

     e(  1 -  1) =     -8.18041  eV     1   --> A              
     e(  2 -  2) =     -7.64949  eV     1   --> A              
     e(  3 -  3) =     -5.66840  eV     1   --> A              
     e(  4 -  4) =      4.36804  eV     1   --> A              
     e(  5 -  5) =      5.24021  eV     1   --> A              
     e(  6 -  6) =     16.41367  eV     1   --> A              
     e(  7 -  7) =     16.55594  eV     1   --> A              
     e(  8 -  8) =     16.64208  eV     1   --> A              
     e(  9 -  9) =     17.25475  eV     1   --> A              
     e( 10 - 10) =     21.11582  eV     1   --> A              
     e( 11 - 11) =     21.37147  eV     1   --> A              
     e( 12 - 12) =     24.25354  eV     1   --> A              
     e( 13 - 13) =     29.37015  eV     1   --> A              
     e( 14 - 14) =     29.47420  eV     1   --> A              
     e( 15 - 15) =     30.03736  eV     1   --> A              
     e( 16 - 16) =     37.57616  eV     1   --> A              
     e( 17 - 17) =     38.17022  eV     1   --> A              
     e( 18 - 18) =     39.40629  eV     1   --> A              
     e( 19 - 19) =     40.30291  eV     1   --> A              
     e( 20 - 20) =     42.96611  eV     1   --> A              
     e( 21 - 21) =     44.92809  eV     1   --> A              
     e( 22 - 22) =     47.29744  eV     1   --> A              
     e( 23 - 23) =     47.70051  eV     1   --> A              
     e( 24 - 24) =     49.28620  eV     1   --> A              
     e( 25 - 25) =     50.74546  eV     1   --> A              
     e( 26 - 26) =     53.14265  eV     1   --> A              
     e( 27 - 27) =     55.00787  eV     1   --> A              
     e( 28 - 28) =     60.79508  eV     1   --> A              
     e( 29 - 29) =     61.15848  eV     1   --> A              
     e( 30 - 30) =     61.81049  eV     1   --> A              
     e( 31 - 31) =     63.17800  eV     1   --> A              
     e( 32 - 32) =     63.23135  eV     1   --> A              

 **************************************************************************

 **************************************************************************

                    xk=(   0.31667,   0.57735,   0.00000  )

     Band symmetry, C_1 (1)     point group:

     e(  1 -  1) =     -8.02525  eV     1   --> A              
     e(  2 -  2) =     -7.72415  eV     1   --> A              
     e(  3 -  3) =     -5.77803  eV     1   --> A              
     e(  4 -  4) =      4.58271  eV     1   --> A              
     e(  5 -  5) =      5.03174  eV     1   --> A              
     e(  6 -  6) =     16.50345  eV     1   --> A              
     e(  7 -  7) =     16.54887  eV     1   --> A              
     e(  8 -  8) =     16.71907  eV     1   --> A              
     e(  9 -  9) =     17.23291  eV     1   --> A              
     e( 10 - 10) =     21.10884  eV     1   --> A              
     e( 11 - 11) =     21.25991  eV     1   --> A              
     e( 12 - 12) =     24.10701  eV     1   --> A              
     e( 13 - 13) =     29.42165  eV     1   --> A              
     e( 14 - 14) =     29.62741  eV     1   --> A              
     e( 15 - 15) =     29.92672  eV     1   --> A              
     e( 16 - 16) =     37.74570  eV     1   --> A              
     e( 17 - 17) =     38.08925  eV     1   --> A              
     e( 18 - 18) =     39.34050  eV     1   --> A              
     e( 19 - 19) =     40.15704  eV     1   --> A              
     e( 20 - 20) =     43.62309  eV     1   --> A              
     e( 21 - 21) =     44.51744  eV     1   --> A              
     e( 22 - 22) =     47.37146  eV     1   --> A              
     e( 23 - 23) =     48.00666  eV     1   --> A              
     e( 24 - 24) =     48.90392  eV     1   --> A              
     e( 25 - 25) =     50.67929  eV     1   --> A              
     e( 26 - 26) =     53.46218  eV     1   --> A              
     e( 27 - 27) =     54.46019  eV     1   --> A              
     e( 28 - 28) =     61.14093  eV     1   --> A              
     e( 29 - 29) =     61.15529  eV     1   --> A              
     e( 30 - 30) =     61.63128  eV     1   --> A              
     e( 31 - 31) =     63.21449  eV     1   --> A              
     e( 32 - 32) =     63.26873  eV     1   --> A              

 **************************************************************************

 **************************************************************************

                    xk=(   0.33333,   0.57735,   0.00000  )

     Band symmetry, C_1 (1)     point group:

     e(  1 -  2) =     -7.86193  eV     2   -->   2 A              
     e(  3 -  3) =     -5.81369  eV     1   --> A              
     e(  4 -  5) =      4.80808  eV     2   -->   2 A              
     e(  6 -  6) =     16.48619  eV     1   --> A              
     e(  7 -  8) =     16.67881  eV     2   -->   2 A              
     e(  9 -  9) =     17.20084  eV     1   --> A              
     e( 10 - 11) =     21.16991  eV     2   -->   2 A              
     e( 12 - 12) =     24.05287  eV     1   --> A              
     e( 13 - 13) =     29.43924  eV     1   --> A              
     e( 14 - 15) =     29.78381  eV     2   -->   2 A              
     e( 16 - 17) =     37.93156  eV     2   -->   2 A              
     e( 18 - 18) =     39.31904  eV     1   --> A              
     e( 19 - 19) =     40.10865  eV     1   --> A              
     e( 20 - 21) =     44.12566  eV     2   -->   2 A              
     e( 22 - 22) =     47.23330  eV     1   --> A              
     e( 23 - 24) =     48.52926  eV     2   -->   2 A              
     e( 25 - 25) =     50.59963  eV     1   --> A              
     e( 26 - 27) =     53.93482  eV     2   -->   2 A              
     e( 28 - 28) =     61.14773  eV     1   --> A              
     e( 29 - 30) =     61.41383  eV     2   -->   2 A              
     e( 31 - 32) =     63.24993  eV     2   -->   2 A              

 **************************************************************************
 
     BANDS        :      2.45s CPU      2.59s WALL

 
   This run was terminated on:  21:27:55   7Nov2020            

=------------------------------------------------------------------------------=
   JOB DONE.
=------------------------------------------------------------------------------=
