
     Program PWSCF v.6.6 starts on  7Nov2020 at 21:26:17 

     This program is part of the open-source Quantum ESPRESSO suite
     for quantum simulation of materials; please cite
         "P. Giannozzi et al., J. Phys.:Condens. Matter 21 395502 (2009);
         "P. Giannozzi et al., J. Phys.:Condens. Matter 29 465901 (2017);
          URL http://www.quantum-espresso.org", 
     in publications or presentations arising from this work. More details at
     http://www.quantum-espresso.org/quote

     Parallel version (MPI), running on     8 processors

     MPI processes distributed on     1 nodes
     R & G space division:  proc/nbgrp/npool/nimage =       8
     Fft bands division:     nmany     =       1
     Reading input from scf.in

     Current dimensions of program PWSCF are:
     Max number of different atomic species (ntypx) = 10
     Max number of k-points (npk) =  40000
     Max angular momentum in pseudopotentials (lmaxx) =  3
     file C.pbe-n-kjpaw_psl.1.0.0.UPF: wavefunction(s)  2S 2P renormalized

     Subspace diagonalization in iterative solution of the eigenvalue problem:
     a serial algorithm will be used

     Message from routine find_sym:
     Not a group! Trying with lower acceptance parameter...
     Message from routine find_sym:
     Still not a group! symmetry disabled
 
     Parallelization info
     --------------------
     sticks:   dense  smooth     PW     G-vecs:    dense   smooth      PW
     Min          68      30     10                 2248      662     122
     Max          69      31     11                 2253      669     125
     Sum         547     241     85                17995     5313     991
 


     bravais-lattice index     =            0
     lattice parameter (alat)  =       4.6633  a.u.
     unit-cell volume          =     154.5471 (a.u.)^3
     number of atoms/cell      =            2
     number of atomic types    =            1
     number of electrons       =         8.00
     number of Kohn-Sham states=            8
     kinetic-energy cutoff     =      40.1868  Ry
     charge density cutoff     =     361.6810  Ry
     convergence threshold     =      1.0E-08
     mixing beta               =       0.5000
     number of iterations used =            8  plain     mixing
     Exchange-correlation= SLA PW PBX PBC
                           (   1   4   3   4   0   0   0)

     celldm(1)=   4.663315  celldm(2)=   0.000000  celldm(3)=   0.000000
     celldm(4)=   0.000000  celldm(5)=   0.000000  celldm(6)=   0.000000

     crystal axes: (cart. coord. in units of alat)
               a(1) = (   1.000000   0.000000   0.000000 )  
               a(2) = (  -0.500000   0.866025   0.000000 )  
               a(3) = (   0.000000   0.000000   1.759730 )  

     reciprocal axes: (cart. coord. in units 2 pi/alat)
               b(1) = (  1.000000  0.577350  0.000000 )  
               b(2) = (  0.000000  1.154701  0.000000 )  
               b(3) = (  0.000000  0.000000  0.568269 )  


     PseudoPot. # 1 for C  read from file:
     ~/pseudos/C.pbe-n-kjpaw_psl.1.0.0.UPF
     MD5 check sum: Not computed, couldn't open file
     Pseudo is Projector augmented-wave + core cor, Zval =  4.0
     Generated using "atomic" code by A. Dal Corso v.5.1
     Shape of augmentation charge: PSQ
     Using radial grid of 1073 points,  4 beta functions with: 
                l(1) =   0
                l(2) =   0
                l(3) =   1
                l(4) =   1
     Q(r) pseudized with 0 coefficients 


     atomic species   valence    mass     pseudopotential
        C              4.00    12.01070     C ( 1.00)

     No symmetry found



   Cartesian axes

     site n.     atom                  positions (alat units)
         1           C   tau(   1) = (   0.0000000   0.0000000   0.8798648  )
         2           C   tau(   2) = (   0.5000010   0.2886757   0.8798648  )

     number of k points=    20  Gaussian smearing, width (Ry)=  0.0100
                       cart. coord. in units 2pi/alat
        k(    1) = (   0.0000000   0.0000000   0.0000000), wk =   0.0555556
        k(    2) = (   0.0000000   0.1924501   0.0000000), wk =   0.1111111
        k(    3) = (   0.0000000   0.3849002   0.0000000), wk =   0.1111111
        k(    4) = (   0.0000000  -0.5773503   0.0000000), wk =   0.0555556
        k(    5) = (   0.1666667   0.2886752   0.0000000), wk =   0.1111111
        k(    6) = (   0.1666667   0.4811253   0.0000000), wk =   0.1111111
        k(    7) = (   0.3333333   0.5773503   0.0000000), wk =   0.1111111
        k(    8) = (   0.1666667   0.0962251   0.0000000), wk =   0.1111111
        k(    9) = (   0.1666667  -0.0962251   0.0000000), wk =   0.1111111
        k(   10) = (   0.3333333   0.1924501   0.0000000), wk =   0.1111111
        k(   11) = (   0.3333333  -0.1924501   0.0000000), wk =   0.1111111
        k(   12) = (  -0.5000000  -0.2886752   0.0000000), wk =   0.0555556
        k(   13) = (  -0.5000000   0.2886752   0.0000000), wk =   0.0555556
        k(   14) = (  -0.1666667   0.2886752   0.0000000), wk =   0.1111111
        k(   15) = (   0.3333333   0.0000000   0.0000000), wk =   0.1111111
        k(   16) = (  -0.1666667   0.4811253   0.0000000), wk =   0.1111111
        k(   17) = (   0.5000000   0.0962251   0.0000000), wk =   0.1111111
        k(   18) = (   0.3333333  -0.3849002   0.0000000), wk =   0.1111111
        k(   19) = (  -0.3333333  -0.3849002   0.0000000), wk =   0.1111111
        k(   20) = (   0.5000000  -0.0962251   0.0000000), wk =   0.1111111

     Dense  grid:    17995 G-vectors     FFT dimensions: (  30,  30,  50)

     Smooth grid:     5313 G-vectors     FFT dimensions: (  24,  24,  36)

     Estimated max dynamical RAM per process >       3.57 MB

     Estimated total dynamical RAM >      28.59 MB

     Check: negative core charge=   -0.000010

     Initial potential from superposition of free atoms

     starting charge    7.99992, renormalised to    8.00000
     Starting wfcs are    8 randomized atomic wfcs
     Checking if some PAW data can be deallocated... 

     total cpu time spent up to now is        1.1 secs

     Self-consistent Calculation

     iteration #  1     ecut=    40.19 Ry     beta= 0.50
     Davidson diagonalization with overlap
     ethr =  1.00E-02,  avg # of iterations =  3.5

     total cpu time spent up to now is        1.3 secs

     total energy              =     -36.85291731 Ry
     estimated scf accuracy    <       0.20865530 Ry

     iteration #  2     ecut=    40.19 Ry     beta= 0.50
     Davidson diagonalization with overlap
     ethr =  2.61E-03,  avg # of iterations =  1.6

     total cpu time spent up to now is        1.5 secs

     total energy              =     -36.85697305 Ry
     estimated scf accuracy    <       0.02000436 Ry

     iteration #  3     ecut=    40.19 Ry     beta= 0.50
     Davidson diagonalization with overlap
     ethr =  2.50E-04,  avg # of iterations =  2.4

     total cpu time spent up to now is        1.7 secs

     total energy              =     -36.86014137 Ry
     estimated scf accuracy    <       0.00052336 Ry

     iteration #  4     ecut=    40.19 Ry     beta= 0.50
     Davidson diagonalization with overlap
     ethr =  6.54E-06,  avg # of iterations =  3.6

     total cpu time spent up to now is        1.9 secs

     total energy              =     -36.86017351 Ry
     estimated scf accuracy    <       0.00009668 Ry

     iteration #  5     ecut=    40.19 Ry     beta= 0.50
     Davidson diagonalization with overlap
     ethr =  1.21E-06,  avg # of iterations =  1.6

     total cpu time spent up to now is        2.1 secs

     total energy              =     -36.86017526 Ry
     estimated scf accuracy    <       0.00001191 Ry

     iteration #  6     ecut=    40.19 Ry     beta= 0.50
     Davidson diagonalization with overlap
     ethr =  1.49E-07,  avg # of iterations =  2.0

     total cpu time spent up to now is        2.3 secs

     total energy              =     -36.86017776 Ry
     estimated scf accuracy    <       0.00000028 Ry

     iteration #  7     ecut=    40.19 Ry     beta= 0.50
     Davidson diagonalization with overlap
     ethr =  3.45E-09,  avg # of iterations =  2.4

     total cpu time spent up to now is        2.5 secs

     total energy              =     -36.86017781 Ry
     estimated scf accuracy    <       0.00000001 Ry

     iteration #  8     ecut=    40.19 Ry     beta= 0.50
     Davidson diagonalization with overlap
     ethr =  1.66E-10,  avg # of iterations =  1.4

     total cpu time spent up to now is        2.7 secs

     End of self-consistent calculation

          k = 0.0000 0.0000 0.0000 (   677 PWs)   bands (ev):

   -14.7928  -2.7220   1.7212   1.7213   7.3480  13.0667  13.0668  16.1514

          k = 0.0000 0.1925 0.0000 (   676 PWs)   bands (ev):

   -14.1375  -1.9508  -0.5769   0.5879   8.2088  13.0632  14.0997  15.6031

          k = 0.0000 0.3849 0.0000 (   662 PWs)   bands (ev):

   -12.2052  -4.8902  -1.0264   0.2408   9.7411  10.7756  12.4277  19.6877

          k = 0.0000-0.5774 0.0000 (   664 PWs)   bands (ev):

    -9.5454  -8.4999  -1.6625   2.4586   6.5651  12.0680  14.8876  15.0916

          k = 0.1667 0.2887 0.0000 (   665 PWs)   bands (ev):

   -12.8435  -3.0203  -1.6637  -0.4560   9.9291  11.1463  14.7205  16.2219

          k = 0.1667 0.4811 0.0000 (   663 PWs)   bands (ev):

   -10.3564  -6.6663  -3.2993   2.1832   7.3397  13.3039  14.6914  17.6454

          k = 0.3333 0.5774 0.0000 (   681 PWs)   bands (ev):

    -7.8615  -7.8614  -5.8132   4.8084   4.8085  16.4863  16.6789  16.6789

          k = 0.1667 0.0962 0.0000 (   676 PWs)   bands (ev):

   -14.1375  -1.9508  -0.5769   0.5879   8.2088  13.0632  14.0997  15.6032

          k = 0.1667-0.0962 0.0000 (   676 PWs)   bands (ev):

   -14.1375  -1.9508  -0.5769   0.5879   8.2088  13.0632  14.0997  15.6031

          k = 0.3333 0.1925 0.0000 (   662 PWs)   bands (ev):

   -12.2052  -4.8902  -1.0264   0.2407   9.7411  10.7756  12.4277  19.6878

          k = 0.3333-0.1925 0.0000 (   662 PWs)   bands (ev):

   -12.2052  -4.8902  -1.0264   0.2408   9.7411  10.7756  12.4277  19.6877

          k =-0.5000-0.2887 0.0000 (   664 PWs)   bands (ev):

    -9.5454  -8.4999  -1.6626   2.4585   6.5651  12.0680  14.8876  15.0916

          k =-0.5000 0.2887 0.0000 (   664 PWs)   bands (ev):

    -9.5454  -8.4999  -1.6625   2.4586   6.5651  12.0680  14.8876  15.0916

          k =-0.1667 0.2887 0.0000 (   665 PWs)   bands (ev):

   -12.8435  -3.0203  -1.6637  -0.4560   9.9291  11.1463  14.7205  16.2218

          k = 0.3333 0.0000 0.0000 (   665 PWs)   bands (ev):

   -12.8435  -3.0203  -1.6637  -0.4560   9.9291  11.1463  14.7205  16.2219

          k =-0.1667 0.4811 0.0000 (   663 PWs)   bands (ev):

   -10.3564  -6.6663  -3.2993   2.1832   7.3397  13.3039  14.6914  17.6454

          k = 0.5000 0.0962 0.0000 (   663 PWs)   bands (ev):

   -10.3564  -6.6662  -3.2994   2.1832   7.3398  13.3039  14.6913  17.6454

          k = 0.3333-0.3849 0.0000 (   663 PWs)   bands (ev):

   -10.3564  -6.6663  -3.2993   2.1832   7.3397  13.3039  14.6914  17.6454

          k =-0.3333-0.3849 0.0000 (   663 PWs)   bands (ev):

   -10.3564  -6.6662  -3.2994   2.1832   7.3398  13.3039  14.6913  17.6454

          k = 0.5000-0.0962 0.0000 (   663 PWs)   bands (ev):

   -10.3564  -6.6663  -3.2993   2.1832   7.3397  13.3039  14.6914  17.6454

     the Fermi energy is     4.8085 ev

!    total energy              =     -36.86017781 Ry

     total all-electron energy =      -152.388373 Ry
     estimated scf accuracy    <          2.2E-09 Ry
     smearing contrib. (-TS)   =      -0.00062688 Ry
     internal energy E=F+TS    =     -36.85955093 Ry

     The total energy is F=E-TS. E is the sum of the following terms:
     one-electron contribution =     -16.96738354 Ry
     hartree contribution      =      12.03202604 Ry
     xc contribution           =      -9.29889347 Ry
     ewald contribution        =     -10.29239655 Ry
     one-center paw contrib.   =     -12.33290342 Ry

     convergence has been achieved in   8 iterations

     Writing output data file ./outdir/graphene.save/
 
     init_run     :      0.17s CPU      0.31s WALL (       1 calls)
     electrons    :      1.24s CPU      1.62s WALL (       1 calls)

     Called by init_run:
     wfcinit      :      0.04s CPU      0.07s WALL (       1 calls)
     potinit      :      0.04s CPU      0.06s WALL (       1 calls)
     hinit0       :      0.06s CPU      0.14s WALL (       1 calls)

     Called by electrons:
     c_bands      :      0.72s CPU      0.95s WALL (       8 calls)
     sum_band     :      0.17s CPU      0.22s WALL (       8 calls)
     v_of_rho     :      0.07s CPU      0.08s WALL (       9 calls)
     newd         :      0.03s CPU      0.04s WALL (       9 calls)
     PAW_pot      :      0.23s CPU      0.29s WALL (       9 calls)
     mix_rho      :      0.03s CPU      0.06s WALL (       8 calls)

     Called by c_bands:
     init_us_2    :      0.01s CPU      0.01s WALL (     340 calls)
     cegterg      :      0.69s CPU      0.91s WALL (     160 calls)

     Called by *egterg:
     cdiaghg      :      0.04s CPU      0.08s WALL (     528 calls)
     h_psi        :      0.60s CPU      0.80s WALL (     548 calls)
     s_psi        :      0.01s CPU      0.01s WALL (     548 calls)
     g_psi        :      0.00s CPU      0.00s WALL (     368 calls)

     Called by h_psi:
     h_psi:calbec :      0.03s CPU      0.05s WALL (     548 calls)
     vloc_psi     :      0.55s CPU      0.73s WALL (     548 calls)
     add_vuspsi   :      0.01s CPU      0.01s WALL (     548 calls)

     General routines
     calbec       :      0.04s CPU      0.07s WALL (     708 calls)
     fft          :      0.05s CPU      0.13s WALL (     115 calls)
     ffts         :      0.00s CPU      0.00s WALL (      17 calls)
     fftw         :      0.61s CPU      0.79s WALL (    7816 calls)
     interpolate  :      0.01s CPU      0.01s WALL (       9 calls)
 
     Parallel routines
     fft_scatt_xy :      0.04s CPU      0.05s WALL (    7948 calls)
     fft_scatt_yz :      0.31s CPU      0.44s WALL (    7948 calls)
 
     PWSCF        :      2.05s CPU      2.76s WALL

 
   This run was terminated on:  21:26:20   7Nov2020            

=------------------------------------------------------------------------------=
   JOB DONE.
=------------------------------------------------------------------------------=
