
     Program PWSCF v.6.6 starts on  7Nov2020 at 21:47:26 

     This program is part of the open-source Quantum ESPRESSO suite
     for quantum simulation of materials; please cite
         "P. Giannozzi et al., J. Phys.:Condens. Matter 21 395502 (2009);
         "P. Giannozzi et al., J. Phys.:Condens. Matter 29 465901 (2017);
          URL http://www.quantum-espresso.org", 
     in publications or presentations arising from this work. More details at
     http://www.quantum-espresso.org/quote

     Parallel version (MPI), running on     8 processors

     MPI processes distributed on     1 nodes
     R & G space division:  proc/nbgrp/npool/nimage =       8
     Fft bands division:     nmany     =       1
     Reading input from bands.in

     Current dimensions of program PWSCF are:
     Max number of different atomic species (ntypx) = 10
     Max number of k-points (npk) =  40000
     Max angular momentum in pseudopotentials (lmaxx) =  3

     Atomic positions and unit cell read from directory:
     ./outdir/graphene.save/
     Atomic positions from file used, from input discarded
 
     Message from routine readpp:
     file ./outdir/graphene.save/C.pbe-n-kjpaw_psl.1.0.0.UPF not found
     file C.pbe-n-kjpaw_psl.1.0.0.UPF: wavefunction(s)  2S 2P renormalized

     Subspace diagonalization in iterative solution of the eigenvalue problem:
     a serial algorithm will be used

     Found symmetry operation: I + ( -0.5000 -0.5000  0.0000)
     This is a supercell, fractional translations are disabled
     Message from routine setup:
     using ibrav=0 with symmetry is DISCOURAGED, use correct ibrav instead
 
     Parallelization info
     --------------------
     sticks:   dense  smooth     PW     G-vecs:    dense   smooth      PW
     Min         271     119     34                 8981     2651     407
     Max         272     120     36                 8985     2656     408
     Sum        2173     955    283                71857    21231    3263
 


     bravais-lattice index     =            0
     lattice parameter (alat)  =       9.3266  a.u.
     unit-cell volume          =     618.1883 (a.u.)^3
     number of atoms/cell      =            8
     number of atomic types    =            1
     number of electrons       =        32.00
     number of Kohn-Sham states=          256
     kinetic-energy cutoff     =      40.1868  Ry
     charge density cutoff     =     361.6810  Ry
     Exchange-correlation= SLA PW PBX PBC
                           (   1   4   3   4   0   0   0)

     celldm(1)=   9.326630  celldm(2)=   0.000000  celldm(3)=   0.000000
     celldm(4)=   0.000000  celldm(5)=   0.000000  celldm(6)=   0.000000

     crystal axes: (cart. coord. in units of alat)
               a(1) = (   1.000000   0.000000   0.000000 )  
               a(2) = (  -0.500000   0.866025   0.000000 )  
               a(3) = (   0.000000   0.000000   0.879865 )  

     reciprocal axes: (cart. coord. in units 2 pi/alat)
               b(1) = (  1.000000  0.577350  0.000000 )  
               b(2) = (  0.000000  1.154701  0.000000 )  
               b(3) = (  0.000000  0.000000  1.136538 )  


     PseudoPot. # 1 for C  read from file:
     ~/pseudos/C.pbe-n-kjpaw_psl.1.0.0.UPF
     MD5 check sum: Not computed, couldn't open file
     Pseudo is Projector augmented-wave + core cor, Zval =  4.0
     Generated using "atomic" code by A. Dal Corso v.5.1
     Shape of augmentation charge: PSQ
     Using radial grid of 1073 points,  4 beta functions with: 
                l(1) =   0
                l(2) =   0
                l(3) =   1
                l(4) =   1
     Q(r) pseudized with 0 coefficients 


     atomic species   valence    mass     pseudopotential
        C              4.00    12.01070     C ( 1.00)

     12 Sym. Ops. (no inversion) found



   Cartesian axes

     site n.     atom                  positions (alat units)
         1           C   tau(   1) = (   0.0000000   0.0000000   0.4399324  )
         2           C   tau(   2) = (   0.2500005   0.1443378   0.4399324  )
         3           C   tau(   3) = (   0.2500000   0.4330127   0.4399324  )
         4           C   tau(   4) = (   0.0000005   0.5773505   0.4399324  )
         5           C   tau(   5) = (   0.5000000   0.0000000   0.4399324  )
         6           C   tau(   6) = (   0.7500005   0.1443378   0.4399324  )
         7           C   tau(   7) = (  -0.2500000   0.4330127   0.4399324  )
         8           C   tau(   8) = (   0.5000005   0.5773505   0.4399324  )

     number of k points=   101  Gaussian smearing, width (Ry)=  0.0100

     Number of k-points >= 100: set verbosity='high' to print them.

     Dense  grid:    71857 G-vectors     FFT dimensions: (  60,  60,  50)

     Smooth grid:    21231 G-vectors     FFT dimensions: (  40,  40,  36)

     Estimated max dynamical RAM per process >      24.98 MB

     Estimated total dynamical RAM >     199.87 MB

     Check: negative core charge=   -0.000010

     The potential is recalculated from file :
     ./outdir/graphene.save/charge-density

     Starting wfcs are   32 randomized atomic wfcs +  224 random wfcs
     Checking if some PAW data can be deallocated... 

     Band Structure Calculation
     Davidson diagonalization with overlap

     ethr =  3.13E-11,  avg # of iterations = 22.5

     total cpu time spent up to now is     1178.9 secs

     End of band structure calculation

     Number of k-points >= 100: set verbosity='high' to print the bands.

     Writing output data file ./outdir/graphene.save/
 
     init_run     :      0.43s CPU      0.64s WALL (       1 calls)
     electrons    :    865.22s CPU   1177.52s WALL (       1 calls)

     Called by init_run:
     wfcinit      :      0.00s CPU      0.00s WALL (       1 calls)
     potinit      :      0.14s CPU      0.25s WALL (       1 calls)
     hinit0       :      0.13s CPU      0.20s WALL (       1 calls)

     Called by electrons:
     c_bands      :    865.22s CPU   1177.52s WALL (       1 calls)
     v_of_rho     :      0.04s CPU      0.08s WALL (       1 calls)
     newd         :      0.02s CPU      0.02s WALL (       1 calls)
     PAW_pot      :      0.08s CPU      0.14s WALL (       1 calls)

     Called by c_bands:
     init_us_2    :      0.04s CPU      0.06s WALL (     101 calls)
     cegterg      :    832.57s CPU   1127.71s WALL (     186 calls)

     Called by *egterg:
     cdiaghg      :    320.57s CPU    357.24s WALL (    2370 calls)
     h_psi        :    277.93s CPU    449.64s WALL (    2556 calls)
     s_psi        :      5.06s CPU      6.58s WALL (    2556 calls)
     g_psi        :      0.82s CPU      0.99s WALL (    2269 calls)

     Called by h_psi:
     h_psi:calbec :     10.29s CPU     15.75s WALL (    2556 calls)
     vloc_psi     :    259.90s CPU    423.89s WALL (    2556 calls)
     add_vuspsi   :      5.31s CPU      6.84s WALL (    2556 calls)

     General routines
     calbec       :     10.27s CPU     15.74s WALL (    2556 calls)
     fft          :      0.04s CPU      0.09s WALL (      13 calls)
     ffts         :      0.00s CPU      0.00s WALL (       1 calls)
     fftw         :    243.75s CPU    402.85s WALL (  683182 calls)
     interpolate  :      0.00s CPU      0.01s WALL (       1 calls)
     davcio       :      0.12s CPU      0.41s WALL (     202 calls)
 
     Parallel routines
     fft_scatt_xy :     11.09s CPU     14.51s WALL (  683196 calls)
     fft_scatt_yz :    170.99s CPU    309.15s WALL (  683196 calls)
 
     PWSCF        :  14m32.56s CPU  19m50.23s WALL

 
   This run was terminated on:  22: 7:16   7Nov2020            

=------------------------------------------------------------------------------=
   JOB DONE.
=------------------------------------------------------------------------------=
