
     Program PWSCF v.6.6 starts on  7Nov2020 at 21:47: 7 

     This program is part of the open-source Quantum ESPRESSO suite
     for quantum simulation of materials; please cite
         "P. Giannozzi et al., J. Phys.:Condens. Matter 21 395502 (2009);
         "P. Giannozzi et al., J. Phys.:Condens. Matter 29 465901 (2017);
          URL http://www.quantum-espresso.org", 
     in publications or presentations arising from this work. More details at
     http://www.quantum-espresso.org/quote

     Parallel version (MPI), running on     8 processors

     MPI processes distributed on     1 nodes
     R & G space division:  proc/nbgrp/npool/nimage =       8
     Fft bands division:     nmany     =       1
     Reading input from scf.in

     Current dimensions of program PWSCF are:
     Max number of different atomic species (ntypx) = 10
     Max number of k-points (npk) =  40000
     Max angular momentum in pseudopotentials (lmaxx) =  3
     file C.pbe-n-kjpaw_psl.1.0.0.UPF: wavefunction(s)  2S 2P renormalized

     Subspace diagonalization in iterative solution of the eigenvalue problem:
     a serial algorithm will be used

     Found symmetry operation: I + ( -0.5000 -0.5000  0.0000)
     This is a supercell, fractional translations are disabled
     Message from routine setup:
     using ibrav=0 with symmetry is DISCOURAGED, use correct ibrav instead
 
     Parallelization info
     --------------------
     sticks:   dense  smooth     PW     G-vecs:    dense   smooth      PW
     Min         271     119     34                 8981     2651     407
     Max         272     120     36                 8985     2656     408
     Sum        2173     955    283                71857    21231    3263
 


     bravais-lattice index     =            0
     lattice parameter (alat)  =       9.3266  a.u.
     unit-cell volume          =     618.1883 (a.u.)^3
     number of atoms/cell      =            8
     number of atomic types    =            1
     number of electrons       =        32.00
     number of Kohn-Sham states=           20
     kinetic-energy cutoff     =      40.1868  Ry
     charge density cutoff     =     361.6810  Ry
     convergence threshold     =      1.0E-08
     mixing beta               =       0.5000
     number of iterations used =            8  plain     mixing
     Exchange-correlation= SLA PW PBX PBC
                           (   1   4   3   4   0   0   0)

     celldm(1)=   9.326630  celldm(2)=   0.000000  celldm(3)=   0.000000
     celldm(4)=   0.000000  celldm(5)=   0.000000  celldm(6)=   0.000000

     crystal axes: (cart. coord. in units of alat)
               a(1) = (   1.000000   0.000000   0.000000 )  
               a(2) = (  -0.500000   0.866025   0.000000 )  
               a(3) = (   0.000000   0.000000   0.879865 )  

     reciprocal axes: (cart. coord. in units 2 pi/alat)
               b(1) = (  1.000000  0.577350  0.000000 )  
               b(2) = (  0.000000  1.154701  0.000000 )  
               b(3) = (  0.000000  0.000000  1.136538 )  


     PseudoPot. # 1 for C  read from file:
     ~/pseudos/C.pbe-n-kjpaw_psl.1.0.0.UPF
     MD5 check sum: Not computed, couldn't open file
     Pseudo is Projector augmented-wave + core cor, Zval =  4.0
     Generated using "atomic" code by A. Dal Corso v.5.1
     Shape of augmentation charge: PSQ
     Using radial grid of 1073 points,  4 beta functions with: 
                l(1) =   0
                l(2) =   0
                l(3) =   1
                l(4) =   1
     Q(r) pseudized with 0 coefficients 


     atomic species   valence    mass     pseudopotential
        C              4.00    12.01070     C ( 1.00)

     12 Sym. Ops. (no inversion) found



   Cartesian axes

     site n.     atom                  positions (alat units)
         1           C   tau(   1) = (   0.0000000   0.0000000   0.4399324  )
         2           C   tau(   2) = (   0.2500005   0.1443378   0.4399324  )
         3           C   tau(   3) = (   0.2500000   0.4330127   0.4399324  )
         4           C   tau(   4) = (   0.0000005   0.5773505   0.4399324  )
         5           C   tau(   5) = (   0.5000000   0.0000000   0.4399324  )
         6           C   tau(   6) = (   0.7500005   0.1443378   0.4399324  )
         7           C   tau(   7) = (  -0.2500000   0.4330127   0.4399324  )
         8           C   tau(   8) = (   0.5000005   0.5773505   0.4399324  )

     number of k points=     7  Gaussian smearing, width (Ry)=  0.0100
                       cart. coord. in units 2pi/alat
        k(    1) = (   0.0000000   0.0000000   0.0000000), wk =   0.0555556
        k(    2) = (   0.0000000   0.1924501   0.0000000), wk =   0.3333333
        k(    3) = (   0.0000000   0.3849002   0.0000000), wk =   0.3333333
        k(    4) = (   0.0000000  -0.5773503   0.0000000), wk =   0.1666667
        k(    5) = (   0.1666667   0.2886752   0.0000000), wk =   0.3333333
        k(    6) = (   0.1666667   0.4811253   0.0000000), wk =   0.6666667
        k(    7) = (   0.3333333   0.5773503   0.0000000), wk =   0.1111111

     Dense  grid:    71857 G-vectors     FFT dimensions: (  60,  60,  50)

     Smooth grid:    21231 G-vectors     FFT dimensions: (  40,  40,  36)

     Estimated max dynamical RAM per process >      13.98 MB

     Estimated total dynamical RAM >     111.85 MB

     Check: negative core charge=   -0.000010

     Initial potential from superposition of free atoms

     starting charge   31.99967, renormalised to   32.00000
     Starting wfcs are   32 randomized atomic wfcs
     Checking if some PAW data can be deallocated... 

     total cpu time spent up to now is        1.6 secs

     Self-consistent Calculation

     iteration #  1     ecut=    40.19 Ry     beta= 0.50
     Davidson diagonalization with overlap
     ethr =  1.00E-02,  avg # of iterations =  2.6

     total cpu time spent up to now is        2.5 secs

     total energy              =    -147.43383990 Ry
     estimated scf accuracy    <       0.80720860 Ry

     iteration #  2     ecut=    40.19 Ry     beta= 0.50
     Davidson diagonalization with overlap
     ethr =  2.52E-03,  avg # of iterations =  2.6

     total cpu time spent up to now is        3.3 secs

     total energy              =    -147.43829457 Ry
     estimated scf accuracy    <       0.08643088 Ry

     iteration #  3     ecut=    40.19 Ry     beta= 0.50
     Davidson diagonalization with overlap
     ethr =  2.70E-04,  avg # of iterations =  3.1

     total cpu time spent up to now is        4.2 secs

     total energy              =    -147.45328419 Ry
     estimated scf accuracy    <       0.00215918 Ry

     iteration #  4     ecut=    40.19 Ry     beta= 0.50
     Davidson diagonalization with overlap
     ethr =  6.75E-06,  avg # of iterations =  4.4

     total cpu time spent up to now is        5.1 secs

     total energy              =    -147.45340752 Ry
     estimated scf accuracy    <       0.00037421 Ry

     iteration #  5     ecut=    40.19 Ry     beta= 0.50
     Davidson diagonalization with overlap
     ethr =  1.17E-06,  avg # of iterations =  4.0

     total cpu time spent up to now is        6.0 secs

     total energy              =    -147.45347217 Ry
     estimated scf accuracy    <       0.00000076 Ry

     iteration #  6     ecut=    40.19 Ry     beta= 0.50
     Davidson diagonalization with overlap
     ethr =  2.36E-09,  avg # of iterations =  4.0

     total cpu time spent up to now is        7.1 secs

     total energy              =    -147.45347320 Ry
     estimated scf accuracy    <       0.00000021 Ry

     iteration #  7     ecut=    40.19 Ry     beta= 0.50
     Davidson diagonalization with overlap
     ethr =  6.67E-10,  avg # of iterations =  2.0

     total cpu time spent up to now is        8.0 secs

     total energy              =    -147.45347324 Ry
     estimated scf accuracy    <       0.00000003 Ry

     iteration #  8     ecut=    40.19 Ry     beta= 0.50
     Davidson diagonalization with overlap
     ethr =  9.70E-11,  avg # of iterations =  3.1

     total cpu time spent up to now is        8.9 secs

     End of self-consistent calculation

          k = 0.0000 0.0000 0.0000 (  2669 PWs)   bands (ev):

   -14.7944  -9.5473  -9.5473  -9.5473  -8.5017  -8.5017  -8.5016  -2.7231
    -1.6647  -1.6647  -1.6647   1.7189   1.7190   2.4572   2.4573   2.4573
     6.5639   6.5639   6.5640   7.3484

          k = 0.0000 0.1925 0.0000 (  2678 PWs)   bands (ev):

   -14.6302 -10.8094  -9.9422  -9.9422  -7.8382  -7.8381  -6.9962  -2.5289
    -2.1515  -2.1514  -1.5020   1.0646   1.3798   1.6366   2.3579   2.3579
     6.8191   6.8192   7.5635   7.6343

          k = 0.0000 0.3849 0.0000 (  2664 PWs)   bands (ev):

   -14.1391 -12.2069 -10.3581 -10.3581  -6.6681  -6.6681  -4.8921  -3.3014
    -3.3013  -1.9519  -1.0285  -0.5791   0.2396   0.5857   2.1819   2.1820
     7.3384   7.3384   8.2092   9.7397

          k = 0.0000-0.5774 0.0000 (  2654 PWs)   bands (ev):

   -13.3273 -13.3273 -10.5058 -10.5058  -5.7926  -5.7926  -4.2105  -4.2105
    -2.6836  -2.6836  -1.0117  -1.0117  -0.2949  -0.2949   2.1028   2.1028
     7.6090   7.6090   9.2832   9.2832

          k = 0.1667 0.2887 0.0000 (  2661 PWs)   bands (ev):

   -14.3025 -11.4227 -11.4226  -9.1247  -8.1029  -5.8941  -5.8941  -3.4864
    -2.1432  -1.8229  -1.8229   0.0270   0.7004   1.0780   1.0780   3.0520
     6.2961   7.9943   8.5518   8.5519

          k = 0.1667 0.4811 0.0000 (  2643 PWs)   bands (ev):

   -13.6511 -12.6848 -11.7357  -9.0821  -7.2163  -4.9195  -4.7538  -3.7667
    -2.7242  -1.6882  -1.3834  -1.1870  -0.2994  -0.2810   0.7793   3.4647
     6.1052   8.8553   9.2200  10.1414

          k = 0.3333 0.5774 0.0000 (  2676 PWs)   bands (ev):

   -12.8452 -12.8452 -12.8452  -7.8634  -7.8633  -5.8150  -3.0224  -3.0224
    -3.0223  -1.6658  -1.6658  -1.6657  -0.4572  -0.4571  -0.4571   4.8071
     4.8071   9.9295   9.9295  11.1447

     the Fermi energy is     4.8071 ev

!    total energy              =    -147.45347325 Ry

     total all-electron energy =      -609.566256 Ry
     estimated scf accuracy    <          2.9E-10 Ry
     smearing contrib. (-TS)   =      -0.00062688 Ry
     internal energy E=F+TS    =    -147.45284637 Ry

     The total energy is F=E-TS. E is the sum of the following terms:
     one-electron contribution =     -67.88156898 Ry
     hartree contribution      =      48.12483577 Ry
     xc contribution           =     -37.19462049 Ry
     ewald contribution        =     -41.16958620 Ry
     one-center paw contrib.   =     -49.33190647 Ry

     convergence has been achieved in   8 iterations

     Writing output data file ./outdir/graphene.save/
 
     init_run     :      0.67s CPU      0.87s WALL (       1 calls)
     electrons    :      4.96s CPU      7.29s WALL (       1 calls)

     Called by init_run:
     wfcinit      :      0.20s CPU      0.26s WALL (       1 calls)
     potinit      :      0.17s CPU      0.22s WALL (       1 calls)
     hinit0       :      0.12s CPU      0.20s WALL (       1 calls)

     Called by electrons:
     c_bands      :      2.82s CPU      4.24s WALL (       8 calls)
     sum_band     :      0.73s CPU      1.10s WALL (       8 calls)
     v_of_rho     :      0.53s CPU      0.80s WALL (       9 calls)
     newd         :      0.16s CPU      0.24s WALL (       9 calls)
     PAW_pot      :      0.70s CPU      0.91s WALL (       9 calls)
     mix_rho      :      0.09s CPU      0.11s WALL (       8 calls)

     Called by c_bands:
     init_us_2    :      0.05s CPU      0.06s WALL (     119 calls)
     cegterg      :      2.69s CPU      4.06s WALL (      56 calls)

     Called by *egterg:
     cdiaghg      :      0.10s CPU      0.15s WALL (     237 calls)
     h_psi        :      2.24s CPU      3.42s WALL (     244 calls)
     s_psi        :      0.06s CPU      0.08s WALL (     244 calls)
     g_psi        :      0.00s CPU      0.00s WALL (     181 calls)

     Called by h_psi:
     h_psi:calbec :      0.19s CPU      0.25s WALL (     244 calls)
     vloc_psi     :      1.95s CPU      3.04s WALL (     244 calls)
     add_vuspsi   :      0.08s CPU      0.09s WALL (     244 calls)

     General routines
     calbec       :      0.23s CPU      0.32s WALL (     300 calls)
     fft          :      0.45s CPU      0.70s WALL (     115 calls)
     ffts         :      0.01s CPU      0.01s WALL (      17 calls)
     fftw         :      2.09s CPU      3.25s WALL (    7870 calls)
     interpolate  :      0.04s CPU      0.05s WALL (       9 calls)
 
     Parallel routines
     fft_scatt_xy :      0.21s CPU      0.31s WALL (    8002 calls)
     fft_scatt_yz :      1.35s CPU      2.12s WALL (    8002 calls)
 
     PWSCF        :      6.30s CPU      8.95s WALL

 
   This run was terminated on:  21:47:16   7Nov2020            

=------------------------------------------------------------------------------=
   JOB DONE.
=------------------------------------------------------------------------------=
