
     Program PWSCF v.6.6 starts on  6Sep2020 at  0: 3:17 

     This program is part of the open-source Quantum ESPRESSO suite
     for quantum simulation of materials; please cite
         "P. Giannozzi et al., J. Phys.:Condens. Matter 21 395502 (2009);
         "P. Giannozzi et al., J. Phys.:Condens. Matter 29 465901 (2017);
          URL http://www.quantum-espresso.org", 
     in publications or presentations arising from this work. More details at
     http://www.quantum-espresso.org/quote

     Parallel version (MPI), running on    44 processors

     MPI processes distributed on     1 nodes
     R & G space division:  proc/nbgrp/npool/nimage =      44
     Fft bands division:     nmany     =       1
     Reading input from 1-scf.in

     Current dimensions of program PWSCF are:
     Max number of different atomic species (ntypx) = 10
     Max number of k-points (npk) =  40000
     Max angular momentum in pseudopotentials (lmaxx) =  3
     file Se.rel-pbe-n-kjpaw_psl.0.2.UPF: wavefunction(s)  4S 4P renormalized
     file Nb.rel-pbe-spn-kjpaw_psl.1.0.0.UPF: wavefunction(s)  4S 4P 4P 4D renormalized

     Subspace diagonalization in iterative solution of the eigenvalue problem:
     a serial algorithm will be used

     Message from routine setup:
     using ibrav=0 with symmetry is DISCOURAGED, use correct ibrav instead
 
     Parallelization info
     --------------------
     sticks:   dense  smooth     PW     G-vecs:    dense   smooth      PW
     Min         140      73     19                15740     5931     815
     Max         141      75     20                15749     5938     826
     Sum        6181    3241    859               692723   261025   36033
 


     bravais-lattice index     =            0
     lattice parameter (alat)  =      19.7529  a.u.
     unit-cell volume          =   11758.5137 (a.u.)^3
     number of atoms/cell      =           27
     number of atomic types    =            2
     number of electrons       =       225.00
     number of Kohn-Sham states=          272
     kinetic-energy cutoff     =      30.0000  Ry
     charge density cutoff     =     230.0000  Ry
     convergence threshold     =      1.0E-06
     mixing beta               =       0.4000
     number of iterations used =            8  plain     mixing
     Exchange-correlation= SLA PW PBX PBC
                           (   1   4   3   4   0   0   0)
     Non magnetic calculation with spin-orbit


     celldm(1)=  19.752929  celldm(2)=   0.000000  celldm(3)=   0.000000
     celldm(4)=   0.000000  celldm(5)=   0.000000  celldm(6)=   0.000000

     crystal axes: (cart. coord. in units of alat)
               a(1) = (   0.866025  -0.500000   0.000000 )  
               a(2) = (   0.000000   1.000000   0.000000 )  
               a(3) = (   0.000000   0.000000   1.761681 )  

     reciprocal axes: (cart. coord. in units 2 pi/alat)
               b(1) = (  1.154701  0.000000  0.000000 )  
               b(2) = (  0.577350  1.000000  0.000000 )  
               b(3) = (  0.000000  0.000000  0.567640 )  


     PseudoPot. # 1 for Se read from file:
     ../Pseudos/Se.rel-pbe-n-kjpaw_psl.0.2.UPF
     MD5 check sum: 45c28741602d7a872c405fe9dd485dc8
     Pseudo is Projector augmented-wave + core cor, Zval =  6.0
     Generated using "atomic" code by A. Dal Corso v.5.0.2 svn rev. 9415
     Shape of augmentation charge: PSQ
     Using radial grid of 1211 points,  6 beta functions with: 
                l(1) =   0
                l(2) =   0
                l(3) =   1
                l(4) =   1
                l(5) =   1
                l(6) =   1
     Q(r) pseudized with 0 coefficients 


     PseudoPot. # 2 for Nb read from file:
     ../Pseudos/Nb.rel-pbe-spn-kjpaw_psl.1.0.0.UPF
     MD5 check sum: 2306cb666db741a7975d44936f4113f9
     Pseudo is Projector augmented-wave + core cor, Zval = 13.0
     Generated using "atomic" code by A. Dal Corso v.6.2.2
     Shape of augmentation charge: PSQ
     Using radial grid of 1227 points, 10 beta functions with: 
                l(1) =   0
                l(2) =   0
                l(3) =   1
                l(4) =   1
                l(5) =   1
                l(6) =   1
                l(7) =   2
                l(8) =   2
                l(9) =   2
               l(10) =   2
     Q(r) pseudized with 0 coefficients 


     atomic species   valence    mass     pseudopotential
        Se             6.00    78.96000     Se( 1.00)
        Nb            13.00    92.90638     Nb( 1.00)

     12 Sym. Ops. (no inversion) found



   Cartesian axes

     site n.     atom                  positions (alat units)
         1           Nb  tau(   1) = (   0.0935853   0.1620955   0.8808406  )
         2           Nb  tau(   2) = (   0.6788539   0.5000005   0.8808406  )
         3           Nb  tau(   3) = (   0.0935853   0.8379055   0.8808406  )
         4           Nb  tau(   4) = (   0.3781760   0.0000000   0.8808406  )
         5           Nb  tau(   5) = (   0.6769374  -0.1724900   0.8808406  )
         6           Nb  tau(   6) = (   0.6769374   0.1724900   0.8808406  )
         7           Nb  tau(   7) = (   0.1038364   0.5000000   0.8808406  )
         8           Nb  tau(   8) = (   0.3810945   0.3399250   0.8808406  )
         9           Nb  tau(   9) = (   0.3810945   0.6600750   0.8808406  )
        10           Se  tau(  10) = (   0.1915302   0.0000000   0.7164088  )
        11           Se  tau(  11) = (   0.7702603  -0.3341300   0.7164088  )
        12           Se  tau(  12) = (   0.7702603   0.3341300   0.7164088  )
        13           Se  tau(  13) = (   0.1915302   0.0000000   1.0452724  )
        14           Se  tau(  14) = (   0.7702603  -0.3341300   1.0452724  )
        15           Se  tau(  15) = (   0.7702603   0.3341300   1.0452724  )
        16           Se  tau(  16) = (   0.4808433  -0.1671550   0.7236933  )
        17           Se  tau(  17) = (   0.7703642   0.0000000   0.7236933  )
        18           Se  tau(  18) = (   0.4808433   0.1671550   0.7236933  )
        19           Se  tau(  19) = (   0.4808433  -0.1671550   1.0379878  )
        20           Se  tau(  20) = (   0.7703642   0.0000000   1.0379878  )
        21           Se  tau(  21) = (   0.4808433   0.1671550   1.0379878  )
        22           Se  tau(  22) = (   0.1909906   0.3308045   0.7193843  )
        23           Se  tau(  23) = (   0.4840450   0.4999995   0.7193843  )
        24           Se  tau(  24) = (   0.1909906   0.6691945   0.7193843  )
        25           Se  tau(  25) = (   0.1909906   0.3308045   1.0422969  )
        26           Se  tau(  26) = (   0.4840450   0.4999995   1.0422969  )
        27           Se  tau(  27) = (   0.1909906   0.6691945   1.0422969  )

     number of k points=     4  Gaussian smearing, width (Ry)=  0.0500
                       cart. coord. in units 2pi/alat
        k(    1) = (   0.0000000   0.0000000   0.0000000), wk =   0.0625000
        k(    2) = (   0.1443376   0.2500000   0.0000000), wk =   0.3750000
        k(    3) = (  -0.2886751  -0.5000000   0.0000000), wk =   0.1875000
        k(    4) = (   0.4330127   0.2500000   0.0000000), wk =   0.3750000

     Dense  grid:   692723 G-vectors     FFT dimensions: (  96,  96, 180)

     Smooth grid:   261025 G-vectors     FFT dimensions: (  72,  72, 125)

     Estimated max dynamical RAM per process >     224.17 MB

     Estimated total dynamical RAM >       9.63 GB

     Initial potential from superposition of free atoms

     starting charge  224.98670, renormalised to  225.00000

     negative rho (up, down):  1.893E-02 0.000E+00
     Starting wfcs are  378 randomized atomic wfcs
     Checking if some PAW data can be deallocated... 

     total cpu time spent up to now is       24.9 secs

     Self-consistent Calculation

     iteration #  1     ecut=    30.00 Ry     beta= 0.40
     Davidson diagonalization with overlap
     ethr =  1.00E-02,  avg # of iterations =  2.0

     Threshold (ethr) on eigenvalues was too large:
     Diagonalizing with lowered threshold

     Davidson diagonalization with overlap
     ethr =  2.99E-04,  avg # of iterations =  2.0

     negative rho (up, down):  2.038E-02 0.000E+00

     total cpu time spent up to now is      108.3 secs

     total energy              =   -6424.77105452 Ry
     estimated scf accuracy    <       0.81651386 Ry

     iteration #  2     ecut=    30.00 Ry     beta= 0.40
     Davidson diagonalization with overlap
     ethr =  3.63E-04,  avg # of iterations =  2.0

     negative rho (up, down):  2.104E-02 0.000E+00

     total cpu time spent up to now is      152.8 secs

     total energy              =   -6424.78645200 Ry
     estimated scf accuracy    <       0.46227336 Ry

     iteration #  3     ecut=    30.00 Ry     beta= 0.40
     Davidson diagonalization with overlap
     ethr =  2.05E-04,  avg # of iterations =  3.0

     negative rho (up, down):  2.148E-02 0.000E+00

     total cpu time spent up to now is      197.3 secs

     total energy              =   -6424.82325579 Ry
     estimated scf accuracy    <       0.63299333 Ry

     iteration #  4     ecut=    30.00 Ry     beta= 0.40
     Davidson diagonalization with overlap
     ethr =  2.05E-04,  avg # of iterations =  2.0

     negative rho (up, down):  2.176E-02 0.000E+00

     total cpu time spent up to now is      236.8 secs

     total energy              =   -6424.88000354 Ry
     estimated scf accuracy    <       0.16496973 Ry

     iteration #  5     ecut=    30.00 Ry     beta= 0.40
     Davidson diagonalization with overlap
     ethr =  7.33E-05,  avg # of iterations =  1.2

     negative rho (up, down):  2.186E-02 0.000E+00

     total cpu time spent up to now is      274.1 secs

     total energy              =   -6424.89794415 Ry
     estimated scf accuracy    <       0.00763226 Ry

     iteration #  6     ecut=    30.00 Ry     beta= 0.40
     Davidson diagonalization with overlap
     c_bands:  1 eigenvalues not converged
     c_bands:  1 eigenvalues not converged
     ethr =  3.39E-06,  avg # of iterations = 18.2

     negative rho (up, down):  2.194E-02 0.000E+00

     total cpu time spent up to now is      344.4 secs

     total energy              =   -6424.89744730 Ry
     estimated scf accuracy    <       0.03457474 Ry

     iteration #  7     ecut=    30.00 Ry     beta= 0.40
     Davidson diagonalization with overlap
     c_bands:  1 eigenvalues not converged
     ethr =  3.39E-06,  avg # of iterations = 11.0

     negative rho (up, down):  2.197E-02 0.000E+00

     total cpu time spent up to now is      396.9 secs

     total energy              =   -6424.89936136 Ry
     estimated scf accuracy    <       0.00381650 Ry

     iteration #  8     ecut=    30.00 Ry     beta= 0.40
     Davidson diagonalization with overlap
     c_bands:  1 eigenvalues not converged
     ethr =  1.70E-06,  avg # of iterations =  6.8

     negative rho (up, down):  2.197E-02 0.000E+00

     total cpu time spent up to now is      440.3 secs

     total energy              =   -6424.89962126 Ry
     estimated scf accuracy    <       0.00026486 Ry

     iteration #  9     ecut=    30.00 Ry     beta= 0.40
     Davidson diagonalization with overlap
     c_bands:  1 eigenvalues not converged
     ethr =  1.18E-07,  avg # of iterations =  8.8

     negative rho (up, down):  2.197E-02 0.000E+00

     total cpu time spent up to now is      498.0 secs

     total energy              =   -6424.89972966 Ry
     estimated scf accuracy    <       0.00046549 Ry

     iteration # 10     ecut=    30.00 Ry     beta= 0.40
     Davidson diagonalization with overlap
     ethr =  1.18E-07,  avg # of iterations =  2.0

     negative rho (up, down):  2.198E-02 0.000E+00

     total cpu time spent up to now is      538.2 secs

     total energy              =   -6424.89975040 Ry
     estimated scf accuracy    <       0.00004031 Ry

     iteration # 11     ecut=    30.00 Ry     beta= 0.40
     Davidson diagonalization with overlap
     ethr =  1.79E-08,  avg # of iterations =  6.2

     negative rho (up, down):  2.198E-02 0.000E+00

     total cpu time spent up to now is      589.9 secs

     total energy              =   -6424.89976156 Ry
     estimated scf accuracy    <       0.00001577 Ry

     iteration # 12     ecut=    30.00 Ry     beta= 0.40
     Davidson diagonalization with overlap
     ethr =  7.01E-09,  avg # of iterations =  3.0

     negative rho (up, down):  2.199E-02 0.000E+00

     total cpu time spent up to now is      631.9 secs

     End of self-consistent calculation

          k = 0.0000 0.0000 0.0000 ( 32593 PWs)   bands (ev):

   -55.6203 -55.6203 -55.6167 -55.6167 -55.6166 -55.6166 -55.5660 -55.5660
   -55.5526 -55.5526 -55.5525 -55.5525 -55.5519 -55.5519 -55.5408 -55.5408
   -55.5406 -55.5406 -33.1463 -33.1463 -33.1384 -33.1384 -33.1256 -33.1256
   -33.0909 -33.0909 -33.0807 -33.0807 -33.0708 -33.0708 -33.0674 -33.0674
   -33.0626 -33.0626 -33.0225 -33.0225 -31.0948 -31.0948 -31.0804 -31.0804
   -31.0578 -31.0578 -31.0483 -31.0483 -31.0345 -31.0345 -31.0323 -31.0323
   -31.0280 -31.0280 -31.0038 -31.0038 -30.9989 -30.9989 -30.9783 -30.9783
   -30.9766 -30.9766 -30.9502 -30.9502 -30.9414 -30.9414 -30.9293 -30.9293
   -30.9280 -30.9280 -30.9123 -30.9123 -30.9061 -30.9061 -30.8633 -30.8633
   -14.0536 -14.0536 -13.1149 -13.1149 -13.1140 -13.1140 -13.1127 -13.1127
   -13.1103 -13.1103 -13.1046 -13.1046 -13.1045 -13.1045 -13.0940 -13.0940
   -12.7369 -12.7369 -12.7369 -12.7369 -12.6940 -12.6940 -12.6430 -12.6430
   -12.6428 -12.6428 -12.5978 -12.5978 -12.5577 -12.5577 -12.5189 -12.5189
   -12.3803 -12.3803 -12.3787 -12.3787  -5.3375  -5.3375  -4.9132  -4.9132
    -4.8914  -4.8914  -4.8890  -4.8890  -4.8852  -4.8852  -4.8463  -4.8463
    -4.8339  -4.8339  -4.8309  -4.8309  -4.7785  -4.7785  -4.4887  -4.4887
    -4.3255  -4.3255  -4.1007  -4.1007  -4.0671  -4.0671  -4.0548  -4.0548
    -4.0272  -4.0272  -4.0271  -4.0271  -3.9952  -3.9952  -3.9938  -3.9938
    -3.9757  -3.9757  -3.9653  -3.9653  -3.9491  -3.9491  -3.8826  -3.8826
    -3.8774  -3.8774  -3.8385  -3.8385  -3.8339  -3.8339  -3.6311  -3.6311
    -3.5855  -3.5855  -3.0718  -3.0718  -2.8804  -2.8804  -2.6787  -2.6787
    -2.6658  -2.6658  -2.6455  -2.6455  -2.5643  -2.5643  -2.4933  -2.4933
    -2.4765  -2.4765  -2.4050  -2.4050  -2.3029  -2.3029  -2.2362  -2.2362
    -2.2172  -2.2172  -2.0147  -2.0147  -1.9245  -1.9245  -1.9176  -1.9176
    -1.8422  -1.8422  -1.7529  -1.7529  -1.7103  -1.7103  -1.6986  -1.6986
    -1.5516  -1.5516  -1.5481  -1.5481  -1.4943  -1.4943  -1.4751  -1.4751
    -1.4500  -1.4500  -1.4478  -1.4478  -1.2816  -1.2816  -1.2499  -1.2499
    -0.9265  -0.9265  -0.8516  -0.8516  -0.8510  -0.8510  -0.8315  -0.8315
    -0.8067  -0.8067  -0.7925  -0.7925  -0.0326  -0.0326   0.0810   0.0810
     0.1604   0.1604   1.3241   1.3241   1.3338   1.3338   1.7866   1.7866
     1.8042   1.8042   1.9255   1.9255   1.9319   1.9319   1.9498   1.9498
     1.9592   1.9592   1.9854   1.9854   2.0417   2.0417   2.0608   2.0608
     2.1000   2.1000   2.2356   2.2356   2.2600   2.2600   2.2716   2.2716
     2.4656   2.4656   2.5027   2.5027   2.5233   2.5233   2.6600   2.6601

          k = 0.1443 0.2500 0.0000 ( 32622 PWs)   bands (ev):

   -55.6205 -55.6205 -55.6169 -55.6169 -55.6167 -55.6167 -55.5662 -55.5662
   -55.5535 -55.5535 -55.5526 -55.5526 -55.5508 -55.5508 -55.5412 -55.5412
   -55.5409 -55.5409 -33.1463 -33.1462 -33.1400 -33.1400 -33.1258 -33.1257
   -33.0915 -33.0914 -33.0822 -33.0821 -33.0750 -33.0749 -33.0675 -33.0675
   -33.0521 -33.0521 -33.0270 -33.0270 -31.0961 -31.0961 -31.0873 -31.0872
   -31.0624 -31.0624 -31.0494 -31.0494 -31.0389 -31.0389 -31.0302 -31.0302
   -31.0222 -31.0222 -30.9996 -30.9995 -30.9885 -30.9884 -30.9801 -30.9800
   -30.9703 -30.9703 -30.9506 -30.9505 -30.9421 -30.9421 -30.9304 -30.9304
   -30.9284 -30.9284 -30.9154 -30.9154 -30.9037 -30.9037 -30.8723 -30.8723
   -13.9784 -13.9784 -13.4511 -13.4511 -13.2430 -13.2430 -13.2329 -13.2329
   -13.0816 -13.0816 -12.9289 -12.9289 -12.9168 -12.9167 -12.8434 -12.8434
   -12.8292 -12.8292 -12.7628 -12.7628 -12.7030 -12.7030 -12.6099 -12.6099
   -12.6084 -12.6084 -12.5942 -12.5942 -12.5735 -12.5735 -12.5307 -12.5307
   -12.4032 -12.4032 -12.3946 -12.3946  -5.2920  -5.2920  -5.2342  -5.2342
    -5.0468  -5.0468  -5.0267  -5.0267  -4.8229  -4.8229  -4.7833  -4.7833
    -4.7266  -4.7266  -4.6845  -4.6845  -4.6668  -4.6668  -4.6350  -4.6350
    -4.6135  -4.6135  -4.3998  -4.3998  -4.2512  -4.2512  -4.1968  -4.1968
    -4.0416  -4.0416  -4.0285  -4.0285  -3.9191  -3.9191  -3.8997  -3.8997
    -3.8907  -3.8907  -3.8567  -3.8567  -3.7467  -3.7467  -3.7246  -3.7246
    -3.6747  -3.6747  -3.6301  -3.6301  -3.3354  -3.3354  -3.3214  -3.3214
    -3.2824  -3.2824  -3.1133  -3.1133  -2.9763  -2.9763  -2.8806  -2.8806
    -2.8331  -2.8331  -2.8012  -2.8012  -2.6968  -2.6968  -2.6815  -2.6815
    -2.6131  -2.6131  -2.3018  -2.3018  -2.2558  -2.2558  -2.1788  -2.1787
    -2.0938  -2.0937  -2.0883  -2.0883  -1.9698  -1.9698  -1.9314  -1.9314
    -1.8832  -1.8832  -1.8461  -1.8461  -1.8266  -1.8265  -1.7597  -1.7597
    -1.6616  -1.6615  -1.6456  -1.6456  -1.5635  -1.5635  -1.5500  -1.5500
    -1.4589  -1.4588  -1.4045  -1.4045  -1.3319  -1.3319  -1.2238  -1.2238
    -0.8267  -0.8266  -0.8052  -0.8052  -0.7466  -0.7466  -0.6807  -0.6807
    -0.6171  -0.6171  -0.5756  -0.5756  -0.1680  -0.1680  -0.0452  -0.0451
     0.0317   0.0317   1.5110   1.5110   1.5258   1.5258   1.7308   1.7308
     1.7574   1.7574   1.8184   1.8185   1.8996   1.8996   1.9392   1.9392
     1.9615   1.9615   2.0420   2.0421   2.0998   2.0998   2.1453   2.1454
     2.1798   2.1798   2.2040   2.2040   2.2894   2.2894   2.3088   2.3088
     2.3344   2.3344   2.3596   2.3596   2.4546   2.4546   2.5062   2.5072

          k =-0.2887-0.5000 0.0000 ( 32592 PWs)   bands (ev):

   -55.6208 -55.6208 -55.6168 -55.6168 -55.6161 -55.6161 -55.5657 -55.5657
   -55.5541 -55.5541 -55.5523 -55.5523 -55.5501 -55.5501 -55.5411 -55.5411
   -55.5409 -55.5409 -33.1453 -33.1453 -33.1405 -33.1405 -33.1261 -33.1261
   -33.0917 -33.0917 -33.0837 -33.0837 -33.0759 -33.0759 -33.0662 -33.0662
   -33.0434 -33.0434 -33.0327 -33.0327 -31.0988 -31.0988 -31.0889 -31.0889
   -31.0660 -31.0660 -31.0522 -31.0522 -31.0398 -31.0398 -31.0276 -31.0276
   -31.0171 -31.0171 -30.9934 -30.9934 -30.9852 -30.9852 -30.9802 -30.9802
   -30.9609 -30.9609 -30.9515 -30.9515 -30.9426 -30.9426 -30.9311 -30.9311
   -30.9282 -30.9282 -30.9190 -30.9190 -30.8987 -30.8987 -30.8832 -30.8832
   -13.7768 -13.7768 -13.7519 -13.7519 -13.2914 -13.2914 -13.2790 -13.2790
   -13.0172 -13.0172 -12.9458 -12.9458 -12.7796 -12.7796 -12.7508 -12.7508
   -12.7417 -12.7417 -12.7259 -12.7259 -12.7257 -12.7257 -12.7198 -12.7198
   -12.7145 -12.7145 -12.5498 -12.5498 -12.5426 -12.5426 -12.5155 -12.5155
   -12.4391 -12.4391 -12.4078 -12.4078  -5.4607  -5.4607  -5.0629  -5.0629
    -5.0358  -5.0358  -4.9961  -4.9961  -4.9869  -4.9869  -4.9744  -4.9744
    -4.9325  -4.9325  -4.5819  -4.5819  -4.5587  -4.5587  -4.5510  -4.5510
    -4.5346  -4.5346  -4.5150  -4.5150  -4.4605  -4.4605  -4.4332  -4.4332
    -4.0134  -4.0134  -3.9897  -3.9897  -3.8773  -3.8773  -3.8204  -3.8204
    -3.8097  -3.8097  -3.7970  -3.7970  -3.7579  -3.7579  -3.5175  -3.5175
    -3.4026  -3.4026  -3.2902  -3.2902  -3.1563  -3.1563  -3.1462  -3.1462
    -3.0977  -3.0977  -3.0355  -3.0355  -2.9784  -2.9784  -2.9411  -2.9411
    -2.8993  -2.8993  -2.8268  -2.8268  -2.7319  -2.7319  -2.6156  -2.6156
    -2.5626  -2.5626  -2.5357  -2.5357  -2.4888  -2.4888  -2.4513  -2.4513
    -2.1524  -2.1524  -2.0630  -2.0630  -2.0568  -2.0568  -2.0256  -2.0256
    -1.9926  -1.9926  -1.9288  -1.9288  -1.9163  -1.9163  -1.8798  -1.8798
    -1.8080  -1.8080  -1.7215  -1.7215  -1.7045  -1.7045  -1.4230  -1.4230
    -1.3389  -1.3389  -1.2891  -1.2891  -1.2821  -1.2821  -1.1991  -1.1991
    -0.7378  -0.7378  -0.7203  -0.7203  -0.6478  -0.6478  -0.6143  -0.6143
    -0.4391  -0.4391  -0.2894  -0.2894  -0.2666  -0.2666  -0.2191  -0.2191
    -0.1857  -0.1857   1.5918   1.5918   1.6211   1.6211   1.7499   1.7499
     1.7631   1.7631   1.8709   1.8709   1.9575   1.9575   1.9836   1.9836
     1.9981   1.9981   2.0387   2.0387   2.0583   2.0583   2.1025   2.1025
     2.1136   2.1136   2.1792   2.1792   2.2140   2.2140   2.2450   2.2450
     2.3090   2.3090   2.3480   2.3480   2.3870   2.3870   2.4052   2.4052

          k = 0.4330 0.2500 0.0000 ( 32649 PWs)   bands (ev):

   -55.6209 -55.6209 -55.6172 -55.6172 -55.6166 -55.6166 -55.5662 -55.5662
   -55.5544 -55.5544 -55.5527 -55.5527 -55.5504 -55.5504 -55.5415 -55.5415
   -55.5412 -55.5412 -33.1475 -33.1443 -33.1418 -33.1409 -33.1266 -33.1256
   -33.0919 -33.0919 -33.0842 -33.0831 -33.0788 -33.0780 -33.0666 -33.0633
   -33.0452 -33.0435 -33.0334 -33.0326 -31.0989 -31.0984 -31.0969 -31.0816
   -31.0696 -31.0649 -31.0549 -31.0481 -31.0415 -31.0371 -31.0315 -31.0289
   -31.0225 -31.0149 -30.9978 -30.9934 -30.9871 -30.9839 -30.9739 -30.9727
   -30.9682 -30.9606 -30.9520 -30.9511 -30.9468 -30.9416 -30.9319 -30.9311
   -30.9287 -30.9274 -30.9215 -30.9165 -30.9027 -30.8976 -30.8844 -30.8819
   -13.8349 -13.8335 -13.5801 -13.5760 -13.5611 -13.5569 -13.0260 -13.0258
   -12.9885 -12.9852 -12.9702 -12.9673 -12.9025 -12.9021 -12.8598 -12.8595
   -12.7519 -12.7364 -12.7291 -12.7219 -12.7202 -12.7147 -12.6516 -12.6346
   -12.6336 -12.6244 -12.6032 -12.6022 -12.5402 -12.5393 -12.5211 -12.5207
   -12.4362 -12.4362 -12.4019 -12.4012  -5.3473  -5.3338  -5.3336  -5.3180
    -5.1423  -5.1065  -5.0481  -5.0466  -4.8214  -4.7919  -4.7664  -4.7631
    -4.7462  -4.7417  -4.7366  -4.7338  -4.7192  -4.7136  -4.7080  -4.6173
    -4.5832  -4.5541  -4.5503  -4.5256  -4.4894  -4.4175  -4.1580  -4.0922
    -4.0423  -3.9718  -3.9256  -3.9203  -3.8840  -3.8822  -3.8521  -3.8496
    -3.8486  -3.8426  -3.8042  -3.7893  -3.7479  -3.7384  -3.6464  -3.6447
    -3.6202  -3.6169  -3.2212  -3.1767  -3.1554  -3.1476  -3.1399  -3.1030
    -3.0405  -3.0324  -3.0272  -3.0197  -2.9848  -2.9731  -2.9619  -2.9344
    -2.9285  -2.9024  -2.8971  -2.8931  -2.8710  -2.8338  -2.5821  -2.5590
    -2.5174  -2.5146  -2.4534  -2.4106  -2.3673  -2.3573  -2.3087  -2.3059
    -2.2975  -2.2359  -2.1475  -2.1242  -2.0982  -2.0876  -2.0291  -1.9968
    -1.9891  -1.9867  -1.9436  -1.9216  -1.9152  -1.8980  -1.8696  -1.8157
    -1.8100  -1.7652  -1.7346  -1.6746  -1.6728  -1.6401  -1.5800  -1.5592
    -1.5145  -1.5101  -1.3502  -1.3110  -1.2541  -1.2026  -1.1902  -1.0841
    -0.7464  -0.7252  -0.7095  -0.6931  -0.6515  -0.6391  -0.5320  -0.4869
    -0.4381  -0.4080  -0.4072  -0.4063  -0.2979  -0.2683  -0.2517  -0.1864
    -0.1179  -0.1169   1.6126   1.6472   1.6776   1.7009   1.7089   1.7110
     1.7515   1.7652   1.8486   1.8724   1.8858   1.9236   1.9401   1.9700
     1.9968   2.0036   2.0158   2.0233   2.0380   2.0451   2.0600   2.0805
     2.0999   2.1186   2.1592   2.1810   2.1939   2.2087   2.2157   2.2333
     2.2862   2.3028   2.3158   2.3299   2.3804   2.4324   2.4551   2.4744

     the Fermi energy is    -0.4479 ev

!    total energy              =   -6424.89976411 Ry

     total all-electron energy =   -156258.997576 Ry
     estimated scf accuracy    <       0.00000015 Ry
     smearing contrib. (-TS)   =      -0.24870230 Ry
     internal energy E=F+TS    =   -6424.65106182 Ry

     The total energy is F=E-TS. E is the sum of the following terms:
     one-electron contribution =   -6515.62494526 Ry
     hartree contribution      =    3284.63437758 Ry
     xc contribution           =    -410.42556253 Ry
     ewald contribution        =    2115.28321927 Ry
     one-center paw contrib.   =   -4898.51815088 Ry

     convergence has been achieved in  12 iterations

     Writing output data file ./outdir/nbse2.save/
 
     init_run     :     18.51s CPU     20.84s WALL (       1 calls)
     electrons    :    563.88s CPU    607.24s WALL (       1 calls)

     Called by init_run:
     wfcinit      :     15.15s CPU     16.88s WALL (       1 calls)
     potinit      :      0.67s CPU      0.71s WALL (       1 calls)
     hinit0       :      0.79s CPU      0.92s WALL (       1 calls)

     Called by electrons:
     c_bands      :    421.72s CPU    445.24s WALL (      13 calls)
     sum_band     :    123.42s CPU    139.29s WALL (      13 calls)
     v_of_rho     :      1.60s CPU      1.74s WALL (      13 calls)
     newd         :     10.88s CPU     14.67s WALL (      13 calls)
     PAW_pot      :      3.51s CPU      3.58s WALL (      13 calls)
     mix_rho      :      2.61s CPU      2.74s WALL (      13 calls)

     Called by c_bands:
     init_us_2    :      2.03s CPU      2.04s WALL (     108 calls)
     cegterg      :    410.01s CPU    433.31s WALL (      52 calls)

     Called by *egterg:
     cdiaghg      :     46.48s CPU     46.59s WALL (     321 calls)
     h_psi        :    250.25s CPU    273.36s WALL (     329 calls)
     s_psi        :     32.83s CPU     33.00s WALL (     329 calls)
     g_psi        :      0.71s CPU      0.74s WALL (     273 calls)

     Called by h_psi:
     h_psi:calbec :     25.86s CPU     26.96s WALL (     329 calls)
     vloc_psi     :    196.83s CPU    218.57s WALL (     329 calls)
     add_vuspsi   :     25.05s CPU     25.27s WALL (     329 calls)

     General routines
     calbec       :     35.26s CPU     36.71s WALL (     381 calls)
     fft          :      1.66s CPU      2.07s WALL (     276 calls)
     ffts         :      0.15s CPU      0.19s WALL (     104 calls)
     fftw         :    154.88s CPU    178.33s WALL (  173692 calls)
     interpolate  :      0.46s CPU      0.53s WALL (      52 calls)
 
     Parallel routines
     fft_scatt_xy :     12.80s CPU     13.84s WALL (  174072 calls)
     fft_scatt_yz :     74.20s CPU     93.00s WALL (  174072 calls)
 
     PWSCF        :   9m48.65s CPU  10m35.64s WALL

 
   This run was terminated on:   0:13:52   6Sep2020            

=------------------------------------------------------------------------------=
   JOB DONE.
=------------------------------------------------------------------------------=
