
     Program PWSCF v.6.6 starts on  6Sep2020 at  0:14:12 

     This program is part of the open-source Quantum ESPRESSO suite
     for quantum simulation of materials; please cite
         "P. Giannozzi et al., J. Phys.:Condens. Matter 21 395502 (2009);
         "P. Giannozzi et al., J. Phys.:Condens. Matter 29 465901 (2017);
          URL http://www.quantum-espresso.org", 
     in publications or presentations arising from this work. More details at
     http://www.quantum-espresso.org/quote

     Parallel version (MPI), running on    44 processors

     MPI processes distributed on     1 nodes
     R & G space division:  proc/nbgrp/npool/nimage =      44
     Fft bands division:     nmany     =       1
     Reading input from 2-bands.in

     Current dimensions of program PWSCF are:
     Max number of different atomic species (ntypx) = 10
     Max number of k-points (npk) =  40000
     Max angular momentum in pseudopotentials (lmaxx) =  3

     Atomic positions and unit cell read from directory:
     ./outdir/nbse2.save/
     Atomic positions from file used, from input discarded
 
     file Se.rel-pbe-n-kjpaw_psl.0.2.UPF: wavefunction(s)  4S 4P renormalized
     file Nb.rel-pbe-spn-kjpaw_psl.1.0.0.UPF: wavefunction(s)  4S 4P 4P 4D renormalized

     Subspace diagonalization in iterative solution of the eigenvalue problem:
     a serial algorithm will be used

     Message from routine setup:
     using ibrav=0 with symmetry is DISCOURAGED, use correct ibrav instead
 
     Parallelization info
     --------------------
     sticks:   dense  smooth     PW     G-vecs:    dense   smooth      PW
     Min         140      61     16                15740     4517     636
     Max         141      63     17                15749     4520     643
     Sum        6181    2713    745               692723   198795   28173
 


     bravais-lattice index     =            0
     lattice parameter (alat)  =      19.7529  a.u.
     unit-cell volume          =   11758.5137 (a.u.)^3
     number of atoms/cell      =           27
     number of atomic types    =            2
     number of electrons       =       225.00
     number of Kohn-Sham states=          272
     kinetic-energy cutoff     =      25.0000  Ry
     charge density cutoff     =     230.0000  Ry
     Exchange-correlation= SLA PW PBX PBC
                           (   1   4   3   4   0   0   0)
     Non magnetic calculation with spin-orbit


     celldm(1)=  19.752929  celldm(2)=   0.000000  celldm(3)=   0.000000
     celldm(4)=   0.000000  celldm(5)=   0.000000  celldm(6)=   0.000000

     crystal axes: (cart. coord. in units of alat)
               a(1) = (   0.866025  -0.500000   0.000000 )  
               a(2) = (   0.000000   1.000000   0.000000 )  
               a(3) = (   0.000000   0.000000   1.761681 )  

     reciprocal axes: (cart. coord. in units 2 pi/alat)
               b(1) = (  1.154701  0.000000  0.000000 )  
               b(2) = (  0.577350  1.000000  0.000000 )  
               b(3) = (  0.000000  0.000000  0.567640 )  


     PseudoPot. # 1 for Se read from file:
     ../Pseudos/Se.rel-pbe-n-kjpaw_psl.0.2.UPF
     MD5 check sum: 45c28741602d7a872c405fe9dd485dc8
     Pseudo is Projector augmented-wave + core cor, Zval =  6.0
     Generated using "atomic" code by A. Dal Corso v.5.0.2 svn rev. 9415
     Shape of augmentation charge: PSQ
     Using radial grid of 1211 points,  6 beta functions with: 
                l(1) =   0
                l(2) =   0
                l(3) =   1
                l(4) =   1
                l(5) =   1
                l(6) =   1
     Q(r) pseudized with 0 coefficients 


     PseudoPot. # 2 for Nb read from file:
     ../Pseudos/Nb.rel-pbe-spn-kjpaw_psl.1.0.0.UPF
     MD5 check sum: 2306cb666db741a7975d44936f4113f9
     Pseudo is Projector augmented-wave + core cor, Zval = 13.0
     Generated using "atomic" code by A. Dal Corso v.6.2.2
     Shape of augmentation charge: PSQ
     Using radial grid of 1227 points, 10 beta functions with: 
                l(1) =   0
                l(2) =   0
                l(3) =   1
                l(4) =   1
                l(5) =   1
                l(6) =   1
                l(7) =   2
                l(8) =   2
                l(9) =   2
               l(10) =   2
     Q(r) pseudized with 0 coefficients 


     atomic species   valence    mass     pseudopotential
        Se             6.00    78.96000     Se( 1.00)
        Nb            13.00    92.90638     Nb( 1.00)

     12 Sym. Ops. (no inversion) found



   Cartesian axes

     site n.     atom                  positions (alat units)
         1           Nb  tau(   1) = (   0.0935853   0.1620955   0.8808406  )
         2           Nb  tau(   2) = (   0.6788539   0.5000005   0.8808406  )
         3           Nb  tau(   3) = (   0.0935853   0.8379055   0.8808406  )
         4           Nb  tau(   4) = (   0.3781760   0.0000000   0.8808406  )
         5           Nb  tau(   5) = (   0.6769374  -0.1724900   0.8808406  )
         6           Nb  tau(   6) = (   0.6769374   0.1724900   0.8808406  )
         7           Nb  tau(   7) = (   0.1038364   0.5000000   0.8808406  )
         8           Nb  tau(   8) = (   0.3810945   0.3399250   0.8808406  )
         9           Nb  tau(   9) = (   0.3810945   0.6600750   0.8808406  )
        10           Se  tau(  10) = (   0.1915302   0.0000000   0.7164088  )
        11           Se  tau(  11) = (   0.7702603  -0.3341300   0.7164088  )
        12           Se  tau(  12) = (   0.7702603   0.3341300   0.7164088  )
        13           Se  tau(  13) = (   0.1915302   0.0000000   1.0452724  )
        14           Se  tau(  14) = (   0.7702603  -0.3341300   1.0452724  )
        15           Se  tau(  15) = (   0.7702603   0.3341300   1.0452724  )
        16           Se  tau(  16) = (   0.4808433  -0.1671550   0.7236933  )
        17           Se  tau(  17) = (   0.7703642   0.0000000   0.7236933  )
        18           Se  tau(  18) = (   0.4808433   0.1671550   0.7236933  )
        19           Se  tau(  19) = (   0.4808433  -0.1671550   1.0379878  )
        20           Se  tau(  20) = (   0.7703642   0.0000000   1.0379878  )
        21           Se  tau(  21) = (   0.4808433   0.1671550   1.0379878  )
        22           Se  tau(  22) = (   0.1909906   0.3308045   0.7193843  )
        23           Se  tau(  23) = (   0.4840450   0.4999995   0.7193843  )
        24           Se  tau(  24) = (   0.1909906   0.6691945   0.7193843  )
        25           Se  tau(  25) = (   0.1909906   0.3308045   1.0422969  )
        26           Se  tau(  26) = (   0.4840450   0.4999995   1.0422969  )
        27           Se  tau(  27) = (   0.1909906   0.6691945   1.0422969  )

     number of k points=    61  Gaussian smearing, width (Ry)=  0.0500
                       cart. coord. in units 2pi/alat
        k(    1) = (   0.2886751   0.5000000   0.0000000), wk =   0.0163934
        k(    2) = (   0.2742414   0.4750000   0.0000000), wk =   0.0163934
        k(    3) = (   0.2598076   0.4500000   0.0000000), wk =   0.0163934
        k(    4) = (   0.2453739   0.4250000   0.0000000), wk =   0.0163934
        k(    5) = (   0.2309401   0.4000000   0.0000000), wk =   0.0163934
        k(    6) = (   0.2165064   0.3750000   0.0000000), wk =   0.0163934
        k(    7) = (   0.2020726   0.3500000   0.0000000), wk =   0.0163934
        k(    8) = (   0.1876388   0.3250000   0.0000000), wk =   0.0163934
        k(    9) = (   0.1732051   0.3000000   0.0000000), wk =   0.0163934
        k(   10) = (   0.1587713   0.2750000   0.0000000), wk =   0.0163934
        k(   11) = (   0.1443376   0.2500000   0.0000000), wk =   0.0163934
        k(   12) = (   0.1299038   0.2250000   0.0000000), wk =   0.0163934
        k(   13) = (   0.1154701   0.2000000   0.0000000), wk =   0.0163934
        k(   14) = (   0.1010363   0.1750000   0.0000000), wk =   0.0163934
        k(   15) = (   0.0866025   0.1500000   0.0000000), wk =   0.0163934
        k(   16) = (   0.0721688   0.1250000   0.0000000), wk =   0.0163934
        k(   17) = (   0.0577350   0.1000000   0.0000000), wk =   0.0163934
        k(   18) = (   0.0433013   0.0750000   0.0000000), wk =   0.0163934
        k(   19) = (   0.0288675   0.0500000   0.0000000), wk =   0.0163934
        k(   20) = (   0.0144338   0.0250000   0.0000000), wk =   0.0163934
        k(   21) = (   0.0000000   0.0000000   0.0000000), wk =   0.0163934
        k(   22) = (   0.0000000   0.0333333   0.0000000), wk =   0.0163934
        k(   23) = (   0.0000000   0.0666667   0.0000000), wk =   0.0163934
        k(   24) = (   0.0000000   0.1000000   0.0000000), wk =   0.0163934
        k(   25) = (   0.0000000   0.1333333   0.0000000), wk =   0.0163934
        k(   26) = (   0.0000000   0.1666667   0.0000000), wk =   0.0163934
        k(   27) = (   0.0000000   0.2000000   0.0000000), wk =   0.0163934
        k(   28) = (   0.0000000   0.2333333   0.0000000), wk =   0.0163934
        k(   29) = (   0.0000000   0.2666667   0.0000000), wk =   0.0163934
        k(   30) = (   0.0000000   0.3000000   0.0000000), wk =   0.0163934
        k(   31) = (   0.0000000   0.3333333   0.0000000), wk =   0.0163934
        k(   32) = (   0.0000000   0.3666667   0.0000000), wk =   0.0163934
        k(   33) = (   0.0000000   0.4000000   0.0000000), wk =   0.0163934
        k(   34) = (   0.0000000   0.4333333   0.0000000), wk =   0.0163934
        k(   35) = (   0.0000000   0.4666667   0.0000000), wk =   0.0163934
        k(   36) = (   0.0000000   0.5000000   0.0000000), wk =   0.0163934
        k(   37) = (   0.0000000   0.5333333   0.0000000), wk =   0.0163934
        k(   38) = (   0.0000000   0.5666667   0.0000000), wk =   0.0163934
        k(   39) = (   0.0000000   0.6000000   0.0000000), wk =   0.0163934
        k(   40) = (   0.0000000   0.6333333   0.0000000), wk =   0.0163934
        k(   41) = (   0.0000000   0.6666666   0.0000000), wk =   0.0163934
        k(   42) = (   0.0144338   0.6583333   0.0000000), wk =   0.0163934
        k(   43) = (   0.0288675   0.6500000   0.0000000), wk =   0.0163934
        k(   44) = (   0.0433013   0.6416666   0.0000000), wk =   0.0163934
        k(   45) = (   0.0577350   0.6333333   0.0000000), wk =   0.0163934
        k(   46) = (   0.0721688   0.6250000   0.0000000), wk =   0.0163934
        k(   47) = (   0.0866025   0.6166666   0.0000000), wk =   0.0163934
        k(   48) = (   0.1010363   0.6083333   0.0000000), wk =   0.0163934
        k(   49) = (   0.1154701   0.6000000   0.0000000), wk =   0.0163934
        k(   50) = (   0.1299038   0.5916667   0.0000000), wk =   0.0163934
        k(   51) = (   0.1443376   0.5833333   0.0000000), wk =   0.0163934
        k(   52) = (   0.1587713   0.5750000   0.0000000), wk =   0.0163934
        k(   53) = (   0.1732051   0.5666667   0.0000000), wk =   0.0163934
        k(   54) = (   0.1876388   0.5583333   0.0000000), wk =   0.0163934
        k(   55) = (   0.2020726   0.5500000   0.0000000), wk =   0.0163934
        k(   56) = (   0.2165064   0.5416667   0.0000000), wk =   0.0163934
        k(   57) = (   0.2309401   0.5333333   0.0000000), wk =   0.0163934
        k(   58) = (   0.2453739   0.5250000   0.0000000), wk =   0.0163934
        k(   59) = (   0.2598076   0.5166667   0.0000000), wk =   0.0163934
        k(   60) = (   0.2742414   0.5083333   0.0000000), wk =   0.0163934
        k(   61) = (   0.2886751   0.5000000   0.0000000), wk =   0.0163934

     Dense  grid:   692723 G-vectors     FFT dimensions: (  96,  96, 180)

     Smooth grid:   198795 G-vectors     FFT dimensions: (  64,  64, 120)

     Estimated max dynamical RAM per process >     178.83 MB

     Estimated total dynamical RAM >       7.68 GB

     The potential is recalculated from file :
     ./outdir/nbse2.save/charge-density


     negative rho (up, down):  2.199E-02 0.000E+00
     Starting wfcs are  378 randomized atomic wfcs
     Checking if some PAW data can be deallocated... 

     Band Structure Calculation
     Davidson diagonalization with overlap
     c_bands:  4 eigenvalues not converged
     c_bands:  2 eigenvalues not converged
     c_bands:  2 eigenvalues not converged
     c_bands:  2 eigenvalues not converged
     c_bands:  1 eigenvalues not converged
     c_bands:  2 eigenvalues not converged
     c_bands:  1 eigenvalues not converged
     c_bands:  1 eigenvalues not converged
     c_bands:  1 eigenvalues not converged
     c_bands:  1 eigenvalues not converged
     c_bands:  1 eigenvalues not converged
     c_bands:  2 eigenvalues not converged
     c_bands:  2 eigenvalues not converged
     c_bands:  1 eigenvalues not converged
     c_bands:  2 eigenvalues not converged
     c_bands:  2 eigenvalues not converged
     c_bands:  2 eigenvalues not converged
     c_bands:  2 eigenvalues not converged
     c_bands:  2 eigenvalues not converged
     c_bands:  1 eigenvalues not converged
     c_bands:  2 eigenvalues not converged
     c_bands:  1 eigenvalues not converged
     c_bands:  2 eigenvalues not converged
     c_bands:  2 eigenvalues not converged

     ethr =  4.44E-12,  avg # of iterations =103.0

     total cpu time spent up to now is     8031.1 secs

     End of band structure calculation

          k = 0.2887 0.5000 0.0000 ( 24844 PWs)   bands (ev):

   -55.5279 -55.5279 -55.5203 -55.5203 -55.5198 -55.5198 -55.4690 -55.4690
   -55.4615 -55.4615 -55.4593 -55.4593 -55.4523 -55.4523 -55.4477 -55.4477
   -55.4457 -55.4457 -33.0128 -33.0128 -33.0070 -33.0070 -32.9934 -32.9934
   -32.9618 -32.9618 -32.9535 -32.9535 -32.9444 -32.9444 -32.9311 -32.9311
   -32.9046 -32.9046 -32.8913 -32.8913 -30.9900 -30.9900 -30.9798 -30.9798
   -30.9574 -30.9574 -30.9435 -30.9435 -30.9304 -30.9304 -30.9183 -30.9183
   -30.9053 -30.9053 -30.8825 -30.8825 -30.8731 -30.8731 -30.8660 -30.8660
   -30.8496 -30.8496 -30.8374 -30.8374 -30.8263 -30.8263 -30.8136 -30.8136
   -30.8120 -30.8120 -30.8031 -30.8031 -30.7764 -30.7764 -30.7634 -30.7634
   -13.7709 -13.7709 -13.7465 -13.7465 -13.2858 -13.2858 -13.2734 -13.2734
   -13.0123 -13.0123 -12.9414 -12.9414 -12.7754 -12.7754 -12.7452 -12.7452
   -12.7358 -12.7358 -12.7219 -12.7219 -12.7202 -12.7202 -12.7142 -12.7142
   -12.7085 -12.7085 -12.5464 -12.5464 -12.5390 -12.5390 -12.5121 -12.5121
   -12.4365 -12.4365 -12.4053 -12.4053  -5.4437  -5.4437  -5.0437  -5.0437
    -5.0161  -5.0161  -4.9767  -4.9767  -4.9652  -4.9652  -4.9529  -4.9529
    -4.9093  -4.9093  -4.5602  -4.5602  -4.5380  -4.5380  -4.5209  -4.5209
    -4.5135  -4.5135  -4.4843  -4.4843  -4.4359  -4.4359  -4.4093  -4.4093
    -3.9914  -3.9914  -3.9675  -3.9675  -3.8485  -3.8485  -3.7929  -3.7929
    -3.7826  -3.7826  -3.7699  -3.7699  -3.7329  -3.7329  -3.4882  -3.4882
    -3.3750  -3.3750  -3.2472  -3.2472  -3.1222  -3.1222  -3.1042  -3.1042
    -3.0643  -3.0643  -3.0035  -3.0035  -2.9419  -2.9419  -2.9031  -2.9031
    -2.8539  -2.8539  -2.7849  -2.7849  -2.6972  -2.6972  -2.5829  -2.5829
    -2.5442  -2.5442  -2.5178  -2.5178  -2.4709  -2.4709  -2.4348  -2.4348
    -2.1023  -2.1023  -2.0340  -2.0340  -2.0105  -2.0105  -1.9860  -1.9860
    -1.9614  -1.9614  -1.8846  -1.8846  -1.8738  -1.8738  -1.8485  -1.8485
    -1.7659  -1.7659  -1.6935  -1.6935  -1.6766  -1.6766  -1.4084  -1.4084
    -1.3249  -1.3249  -1.2752  -1.2752  -1.2680  -1.2680  -1.1876  -1.1876
    -0.6557  -0.6557  -0.6255  -0.6255  -0.5406  -0.5406  -0.5152  -0.5152
    -0.3456  -0.3456  -0.2039  -0.2039  -0.1775  -0.1775  -0.1175  -0.1175
    -0.0844  -0.0844   1.7081   1.7081   1.7352   1.7352   1.8796   1.8796
     1.8870   1.8870   1.9954   1.9954   2.0816   2.0816   2.0855   2.0855
     2.1448   2.1448   2.1619   2.1619   2.1820   2.1820   2.2211   2.2211
     2.2308   2.2308   2.3076   2.3076   2.3296   2.3296   2.3661   2.3661
     2.4283   2.4283   2.4721   2.4721   2.5286   2.5286   2.5487   2.5487

          k = 0.2742 0.4750 0.0000 ( 24846 PWs)   bands (ev):

   -55.5274 -55.5274 -55.5208 -55.5208 -55.5199 -55.5199 -55.4689 -55.4689
   -55.4614 -55.4614 -55.4594 -55.4594 -55.4525 -55.4525 -55.4477 -55.4477
   -55.4458 -55.4458 -33.0132 -33.0132 -33.0072 -33.0072 -32.9936 -32.9936
   -32.9618 -32.9618 -32.9538 -32.9538 -32.9438 -32.9438 -32.9312 -32.9312
   -32.9046 -32.9046 -32.8911 -32.8911 -30.9906 -30.9906 -30.9798 -30.9798
   -30.9577 -30.9577 -30.9439 -30.9439 -30.9306 -30.9306 -30.9181 -30.9181
   -30.9046 -30.9046 -30.8819 -30.8819 -30.8731 -30.8731 -30.8663 -30.8663
   -30.8494 -30.8494 -30.8375 -30.8375 -30.8261 -30.8261 -30.8136 -30.8136
   -30.8119 -30.8118 -30.8033 -30.8033 -30.7773 -30.7773 -30.7635 -30.7635
   -13.7879 -13.7879 -13.7283 -13.7283 -13.2853 -13.2853 -13.2729 -13.2729
   -13.0139 -13.0139 -12.9392 -12.9392 -12.7751 -12.7751 -12.7577 -12.7577
   -12.7354 -12.7353 -12.7228 -12.7227 -12.7214 -12.7213 -12.7146 -12.7146
   -12.6961 -12.6960 -12.5475 -12.5475 -12.5398 -12.5398 -12.5118 -12.5118
   -12.4359 -12.4359 -12.4052 -12.4052  -5.4423  -5.4423  -5.0453  -5.0453
    -5.0173  -5.0172  -4.9794  -4.9794  -4.9724  -4.9724  -4.9503  -4.9503
    -4.8932  -4.8932  -4.5721  -4.5721  -4.5394  -4.5393  -4.5219  -4.5219
    -4.5003  -4.5003  -4.4853  -4.4853  -4.4490  -4.4489  -4.3944  -4.3944
    -3.9918  -3.9918  -3.9681  -3.9681  -3.8490  -3.8490  -3.7955  -3.7955
    -3.7860  -3.7860  -3.7663  -3.7663  -3.7314  -3.7314  -3.4903  -3.4903
    -3.3785  -3.3785  -3.2757  -3.2757  -3.1222  -3.1221  -3.0794  -3.0794
    -3.0613  -3.0613  -3.0024  -3.0024  -2.9407  -2.9407  -2.8997  -2.8997
    -2.8527  -2.8527  -2.7847  -2.7847  -2.7129  -2.7129  -2.5986  -2.5986
    -2.5700  -2.5700  -2.5535  -2.5535  -2.4270  -2.4270  -2.3846  -2.3846
    -2.1023  -2.1023  -2.0345  -2.0345  -2.0123  -2.0123  -1.9836  -1.9836
    -1.9639  -1.9639  -1.8810  -1.8810  -1.8784  -1.8783  -1.8527  -1.8527
    -1.7589  -1.7589  -1.6923  -1.6923  -1.6737  -1.6737  -1.4113  -1.4113
    -1.3268  -1.3268  -1.2749  -1.2749  -1.2683  -1.2683  -1.1883  -1.1883
    -0.6570  -0.6570  -0.6275  -0.6275  -0.5438  -0.5437  -0.5154  -0.5154
    -0.3495  -0.3495  -0.2042  -0.2041  -0.1757  -0.1757  -0.1334  -0.1334
    -0.0661  -0.0660   1.7074   1.7074   1.7344   1.7344   1.8783   1.8783
     1.8851   1.8851   1.9922   1.9922   2.0805   2.0805   2.0878   2.0878
     2.1432   2.1432   2.1612   2.1612   2.1824   2.1824   2.2210   2.2210
     2.2339   2.2339   2.3073   2.3073   2.3295   2.3295   2.3694   2.3694
     2.4314   2.4314   2.4721   2.4721   2.5234   2.5234   2.5478   2.5478

          k = 0.2598 0.4500 0.0000 ( 24818 PWs)   bands (ev):

   -55.5268 -55.5268 -55.5200 -55.5200 -55.5196 -55.5196 -55.4683 -55.4683
   -55.4605 -55.4605 -55.4592 -55.4592 -55.4521 -55.4521 -55.4468 -55.4468
   -55.4454 -55.4454 -33.0119 -33.0118 -33.0063 -33.0062 -32.9929 -32.9929
   -32.9608 -32.9608 -32.9526 -32.9525 -32.9428 -32.9428 -32.9314 -32.9314
   -32.9046 -32.9046 -32.8891 -32.8891 -30.9891 -30.9891 -30.9793 -30.9793
   -30.9568 -30.9568 -30.9428 -30.9428 -30.9301 -30.9301 -30.9177 -30.9177
   -30.9046 -30.9046 -30.8816 -30.8816 -30.8725 -30.8725 -30.8657 -30.8657
   -30.8486 -30.8486 -30.8367 -30.8367 -30.8252 -30.8252 -30.8128 -30.8128
   -30.8110 -30.8110 -30.8029 -30.8029 -30.7774 -30.7774 -30.7608 -30.7608
   -13.8121 -13.8121 -13.7009 -13.7009 -13.2838 -13.2838 -13.2715 -13.2715
   -13.0186 -13.0186 -12.9333 -12.9333 -12.7757 -12.7757 -12.7737 -12.7737
   -12.7529 -12.7529 -12.7211 -12.7211 -12.7198 -12.7198 -12.7055 -12.7054
   -12.6794 -12.6794 -12.5505 -12.5505 -12.5421 -12.5421 -12.5110 -12.5110
   -12.4341 -12.4341 -12.4048 -12.4048  -5.4365  -5.4365  -5.0485  -5.0484
    -5.0230  -5.0230  -5.0000  -5.0000  -4.9686  -4.9686  -4.9367  -4.9367
    -4.8640  -4.8640  -4.5957  -4.5956  -4.5356  -4.5355  -4.5247  -4.5247
    -4.4906  -4.4906  -4.4867  -4.4867  -4.4563  -4.4562  -4.3704  -4.3704
    -3.9933  -3.9933  -3.9700  -3.9700  -3.8495  -3.8495  -3.8017  -3.8017
    -3.7928  -3.7928  -3.7599  -3.7599  -3.7274  -3.7274  -3.4968  -3.4968
    -3.3891  -3.3891  -3.3321  -3.3321  -3.1239  -3.1239  -3.0578  -3.0578
    -3.0225  -3.0225  -2.9979  -2.9979  -2.9380  -2.9380  -2.8903  -2.8903
    -2.8489  -2.8489  -2.7866  -2.7865  -2.7413  -2.7413  -2.6740  -2.6740
    -2.6387  -2.6387  -2.5222  -2.5222  -2.3561  -2.3561  -2.3120  -2.3120
    -2.1008  -2.1008  -2.0347  -2.0347  -2.0155  -2.0155  -1.9792  -1.9792
    -1.9701  -1.9701  -1.8930  -1.8930  -1.8716  -1.8716  -1.8589  -1.8589
    -1.7452  -1.7452  -1.6882  -1.6882  -1.6648  -1.6647  -1.4197  -1.4197
    -1.3323  -1.3323  -1.2747  -1.2747  -1.2689  -1.2689  -1.1901  -1.1901
    -0.6597  -0.6597  -0.6312  -0.6312  -0.5505  -0.5505  -0.5155  -0.5154
    -0.3595  -0.3595  -0.2043  -0.2042  -0.1827  -0.1827  -0.1417  -0.1417
    -0.0354  -0.0354   1.7090   1.7090   1.7357   1.7357   1.8758   1.8758
     1.8823   1.8823   1.9865   1.9865   2.0807   2.0807   2.0979   2.0979
     2.1409   2.1409   2.1584   2.1584   2.1838   2.1838   2.2203   2.2203
     2.2408   2.2408   2.3076   2.3076   2.3301   2.3301   2.3771   2.3772
     2.4381   2.4381   2.4716   2.4716   2.5142   2.5143   2.5458   2.5459

          k = 0.2454 0.4250 0.0000 ( 24814 PWs)   bands (ev):

   -55.5273 -55.5273 -55.5199 -55.5199 -55.5191 -55.5191 -55.4683 -55.4683
   -55.4607 -55.4607 -55.4592 -55.4592 -55.4519 -55.4519 -55.4465 -55.4465
   -55.4451 -55.4451 -33.0114 -33.0114 -33.0054 -33.0053 -32.9930 -32.9930
   -32.9607 -32.9607 -32.9521 -32.9521 -32.9427 -32.9427 -32.9314 -32.9314
   -32.9058 -32.9058 -32.8888 -32.8888 -30.9884 -30.9884 -30.9784 -30.9784
   -30.9560 -30.9560 -30.9424 -30.9424 -30.9293 -30.9293 -30.9176 -30.9176
   -30.9047 -30.9047 -30.8822 -30.8822 -30.8730 -30.8730 -30.8656 -30.8656
   -30.8493 -30.8493 -30.8367 -30.8367 -30.8254 -30.8254 -30.8129 -30.8128
   -30.8112 -30.8112 -30.8027 -30.8027 -30.7787 -30.7787 -30.7594 -30.7594
   -13.8362 -13.8362 -13.6719 -13.6719 -13.2814 -13.2814 -13.2692 -13.2692
   -13.0252 -13.0252 -12.9250 -12.9250 -12.7925 -12.7925 -12.7737 -12.7737
   -12.7716 -12.7716 -12.7255 -12.7255 -12.7195 -12.7195 -12.6906 -12.6906
   -12.6629 -12.6629 -12.5551 -12.5551 -12.5457 -12.5457 -12.5102 -12.5102
   -12.4312 -12.4312 -12.4041 -12.4041  -5.4276  -5.4276  -5.0518  -5.0518
    -5.0406  -5.0406  -5.0147  -5.0147  -4.9557  -4.9557  -4.9177  -4.9176
    -4.8325  -4.8325  -4.6215  -4.6215  -4.5302  -4.5302  -4.5286  -4.5286
    -4.5032  -4.5031  -4.4940  -4.4940  -4.4351  -4.4350  -4.3456  -4.3455
    -3.9957  -3.9957  -3.9729  -3.9729  -3.8512  -3.8512  -3.8093  -3.8093
    -3.8009  -3.8009  -3.7527  -3.7527  -3.7218  -3.7218  -3.5070  -3.5070
    -3.4066  -3.4066  -3.3957  -3.3957  -3.1269  -3.1269  -3.0500  -3.0500
    -2.9983  -2.9983  -2.9613  -2.9613  -2.9348  -2.9347  -2.8779  -2.8779
    -2.8432  -2.8432  -2.7988  -2.7988  -2.7613  -2.7612  -2.7456  -2.7456
    -2.7166  -2.7166  -2.4789  -2.4789  -2.2851  -2.2851  -2.2400  -2.2400
    -2.0997  -2.0997  -2.0362  -2.0362  -2.0171  -2.0171  -1.9890  -1.9890
    -1.9642  -1.9642  -1.9122  -1.9122  -1.8706  -1.8706  -1.8506  -1.8506
    -1.7327  -1.7327  -1.6819  -1.6819  -1.6502  -1.6502  -1.4325  -1.4324
    -1.3409  -1.3409  -1.2760  -1.2760  -1.2713  -1.2713  -1.1920  -1.1920
    -0.6648  -0.6648  -0.6369  -0.6369  -0.5591  -0.5590  -0.5161  -0.5161
    -0.3736  -0.3736  -0.2226  -0.2226  -0.1886  -0.1886  -0.1278  -0.1278
    -0.0078  -0.0078   1.7116   1.7116   1.7370   1.7370   1.8695   1.8695
     1.8783   1.8783   1.9780   1.9780   2.0777   2.0777   2.1102   2.1102
     2.1346   2.1346   2.1520   2.1520   2.1858   2.1858   2.2179   2.2179
     2.2499   2.2499   2.3078   2.3078   2.3293   2.3293   2.3898   2.3898
     2.4486   2.4487   2.4688   2.4689   2.5042   2.5042   2.5406   2.5407

          k = 0.2309 0.4000 0.0000 ( 24808 PWs)   bands (ev):

   -55.5275 -55.5275 -55.5197 -55.5197 -55.5189 -55.5189 -55.4687 -55.4687
   -55.4602 -55.4602 -55.4590 -55.4590 -55.4520 -55.4520 -55.4461 -55.4461
   -55.4449 -55.4449 -33.0107 -33.0106 -33.0049 -33.0048 -32.9928 -32.9928
   -32.9601 -32.9600 -32.9510 -32.9510 -32.9424 -32.9424 -32.9314 -32.9314
   -32.9069 -32.9069 -32.8895 -32.8895 -30.9872 -30.9871 -30.9780 -30.9780
   -30.9550 -30.9550 -30.9414 -30.9414 -30.9287 -30.9287 -30.9178 -30.9178
   -30.9050 -30.9050 -30.8830 -30.8830 -30.8733 -30.8733 -30.8654 -30.8654
   -30.8504 -30.8504 -30.8364 -30.8363 -30.8254 -30.8254 -30.8126 -30.8126
   -30.8116 -30.8116 -30.8022 -30.8022 -30.7793 -30.7793 -30.7588 -30.7588
   -13.8593 -13.8593 -13.6418 -13.6418 -13.2779 -13.2779 -13.2659 -13.2659
   -13.0327 -13.0327 -12.9147 -12.9147 -12.8104 -12.8104 -12.7909 -12.7909
   -12.7724 -12.7724 -12.7331 -12.7331 -12.7180 -12.7180 -12.6759 -12.6759
   -12.6470 -12.6470 -12.5607 -12.5607 -12.5505 -12.5505 -12.5099 -12.5099
   -12.4276 -12.4276 -12.4032 -12.4032  -5.4150  -5.4150  -5.0676  -5.0676
    -5.0528  -5.0528  -5.0205  -5.0204  -4.9383  -4.9383  -4.8956  -4.8956
    -4.8002  -4.8002  -4.6477  -4.6477  -4.5359  -4.5359  -4.5327  -4.5327
    -4.5107  -4.5107  -4.5009  -4.5009  -4.4068  -4.4068  -4.3204  -4.3204
    -3.9987  -3.9987  -3.9768  -3.9768  -3.8535  -3.8535  -3.8174  -3.8174
    -3.8099  -3.8099  -3.7462  -3.7462  -3.7162  -3.7162  -3.5213  -3.5213
    -3.4644  -3.4644  -3.4264  -3.4264  -3.1302  -3.1301  -3.0436  -3.0435
    -2.9947  -2.9947  -2.9438  -2.9438  -2.8974  -2.8974  -2.8690  -2.8690
    -2.8365  -2.8365  -2.8306  -2.8306  -2.8086  -2.8086  -2.7938  -2.7937
    -2.7465  -2.7464  -2.4351  -2.4351  -2.2182  -2.2182  -2.1735  -2.1735
    -2.0990  -2.0990  -2.0389  -2.0389  -2.0176  -2.0176  -2.0024  -2.0023
    -1.9508  -1.9508  -1.9311  -1.9311  -1.8767  -1.8766  -1.8321  -1.8321
    -1.7232  -1.7232  -1.6744  -1.6744  -1.6305  -1.6305  -1.4482  -1.4482
    -1.3524  -1.3523  -1.2794  -1.2794  -1.2766  -1.2766  -1.1933  -1.1933
    -0.6711  -0.6711  -0.6432  -0.6432  -0.5692  -0.5691  -0.5193  -0.5193
    -0.3910  -0.3910  -0.2570  -0.2570  -0.1804  -0.1804  -0.1076  -0.1076
     0.0182   0.0183   1.7151   1.7151   1.7389   1.7389   1.8609   1.8609
     1.8741   1.8741   1.9681   1.9682   2.0741   2.0741   2.1200   2.1200
     2.1320   2.1320   2.1463   2.1463   2.1884   2.1884   2.2156   2.2157
     2.2632   2.2632   2.3085   2.3085   2.3289   2.3289   2.4060   2.4060
     2.4614   2.4614   2.4646   2.4646   2.4994   2.4995   2.5351   2.5352

          k = 0.2165 0.3750 0.0000 ( 24819 PWs)   bands (ev):

   -55.5279 -55.5279 -55.5195 -55.5195 -55.5194 -55.5194 -55.4690 -55.4690
   -55.4602 -55.4602 -55.4595 -55.4595 -55.4524 -55.4524 -55.4460 -55.4460
   -55.4453 -55.4453 -33.0104 -33.0103 -33.0050 -33.0050 -32.9938 -32.9938
   -32.9604 -32.9603 -32.9509 -32.9509 -32.9427 -32.9427 -32.9327 -32.9327
   -32.9087 -32.9087 -32.8888 -32.8888 -30.9865 -30.9865 -30.9780 -30.9780
   -30.9548 -30.9548 -30.9415 -30.9415 -30.9289 -30.9289 -30.9185 -30.9185
   -30.9067 -30.9067 -30.8846 -30.8846 -30.8741 -30.8741 -30.8654 -30.8654
   -30.8517 -30.8517 -30.8365 -30.8364 -30.8257 -30.8257 -30.8125 -30.8125
   -30.8118 -30.8117 -30.8023 -30.8023 -30.7803 -30.7803 -30.7578 -30.7578
   -13.8813 -13.8813 -13.6107 -13.6107 -13.2736 -13.2736 -13.2618 -13.2618
   -13.0404 -13.0404 -12.9034 -12.9034 -12.8289 -12.8288 -12.8106 -12.8106
   -12.7709 -12.7709 -12.7430 -12.7430 -12.7160 -12.7160 -12.6618 -12.6618
   -12.6318 -12.6318 -12.5673 -12.5673 -12.5562 -12.5562 -12.5103 -12.5103
   -12.4234 -12.4234 -12.4020 -12.4020  -5.3991  -5.3991  -5.0940  -5.0940
    -5.0533  -5.0533  -5.0231  -5.0231  -4.9174  -4.9174  -4.8704  -4.8704
    -4.7687  -4.7687  -4.6733  -4.6732  -4.5534  -4.5534  -4.5445  -4.5445
    -4.5108  -4.5108  -4.4987  -4.4987  -4.3775  -4.3775  -4.2956  -4.2956
    -4.0027  -4.0027  -3.9819  -3.9819  -3.8571  -3.8571  -3.8262  -3.8261
    -3.8199  -3.8198  -3.7400  -3.7400  -3.7104  -3.7104  -3.5388  -3.5388
    -3.5303  -3.5303  -3.4520  -3.4520  -3.1344  -3.1344  -3.0460  -3.0459
    -2.9971  -2.9971  -2.9448  -2.9447  -2.9121  -2.9121  -2.8904  -2.8904
    -2.8618  -2.8618  -2.8257  -2.8257  -2.8204  -2.8204  -2.7929  -2.7928
    -2.7358  -2.7358  -2.3912  -2.3912  -2.1634  -2.1634  -2.1229  -2.1229
    -2.0877  -2.0877  -2.0476  -2.0476  -2.0267  -2.0267  -1.9959  -1.9959
    -1.9487  -1.9487  -1.9334  -1.9334  -1.8823  -1.8823  -1.8107  -1.8107
    -1.7155  -1.7155  -1.6666  -1.6666  -1.6072  -1.6072  -1.4657  -1.4657
    -1.3660  -1.3660  -1.2894  -1.2894  -1.2811  -1.2811  -1.1929  -1.1929
    -0.6799  -0.6799  -0.6538  -0.6538  -0.5817  -0.5817  -0.5254  -0.5253
    -0.4117  -0.4117  -0.2954  -0.2954  -0.1675  -0.1675  -0.0839  -0.0838
     0.0427   0.0427   1.7161   1.7161   1.7374   1.7374   1.8490   1.8490
     1.8697   1.8697   1.9577   1.9577   2.0693   2.0693   2.1121   2.1121
     2.1336   2.1336   2.1514   2.1514   2.1945   2.1945   2.2164   2.2164
     2.2790   2.2790   2.3070   2.3070   2.3277   2.3278   2.4268   2.4269
     2.4553   2.4553   2.4748   2.4748   2.5007   2.5007   2.5277   2.5278

          k = 0.2021 0.3500 0.0000 ( 24839 PWs)   bands (ev):

   -55.5280 -55.5280 -55.5203 -55.5203 -55.5197 -55.5197 -55.4689 -55.4689
   -55.4608 -55.4608 -55.4601 -55.4601 -55.4527 -55.4527 -55.4466 -55.4466
   -55.4460 -55.4460 -33.0112 -33.0112 -33.0060 -33.0059 -32.9946 -32.9946
   -32.9612 -32.9612 -32.9516 -32.9516 -32.9436 -32.9436 -32.9338 -32.9338
   -32.9099 -32.9099 -32.8872 -32.8872 -30.9866 -30.9865 -30.9784 -30.9783
   -30.9551 -30.9551 -30.9417 -30.9417 -30.9293 -30.9293 -30.9194 -30.9194
   -30.9080 -30.9080 -30.8860 -30.8859 -30.8752 -30.8751 -30.8661 -30.8661
   -30.8531 -30.8531 -30.8374 -30.8374 -30.8263 -30.8263 -30.8133 -30.8133
   -30.8124 -30.8124 -30.8027 -30.8027 -30.7815 -30.7815 -30.7555 -30.7555
   -13.9021 -13.9021 -13.5789 -13.5789 -13.2682 -13.2682 -13.2566 -13.2566
   -13.0483 -13.0483 -12.8913 -12.8913 -12.8475 -12.8475 -12.8305 -12.8305
   -12.7691 -12.7691 -12.7551 -12.7551 -12.7136 -12.7136 -12.6485 -12.6485
   -12.6174 -12.6174 -12.5744 -12.5744 -12.5625 -12.5625 -12.5117 -12.5117
   -12.4189 -12.4189 -12.4005 -12.4005  -5.3798  -5.3798  -5.1202  -5.1202
    -5.0517  -5.0517  -5.0236  -5.0236  -4.8937  -4.8937  -4.8428  -4.8428
    -4.7374  -4.7374  -4.6981  -4.6981  -4.5757  -4.5757  -4.5547  -4.5547
    -4.5220  -4.5220  -4.4818  -4.4818  -4.3480  -4.3480  -4.2711  -4.2711
    -4.0068  -4.0068  -3.9872  -3.9872  -3.8622  -3.8622  -3.8352  -3.8352
    -3.8297  -3.8296  -3.7348  -3.7348  -3.7054  -3.7054  -3.5958  -3.5958
    -3.5577  -3.5577  -3.4801  -3.4801  -3.1425  -3.1425  -3.0668  -3.0667
    -3.0074  -3.0074  -2.9841  -2.9841  -2.9623  -2.9623  -2.9305  -2.9305
    -2.8569  -2.8569  -2.8091  -2.8091  -2.7768  -2.7768  -2.7618  -2.7618
    -2.7213  -2.7213  -2.3501  -2.3501  -2.1423  -2.1423  -2.0928  -2.0928
    -2.0706  -2.0706  -2.0518  -2.0518  -2.0176  -2.0176  -1.9783  -1.9783
    -1.9602  -1.9602  -1.9143  -1.9143  -1.8845  -1.8845  -1.7889  -1.7889
    -1.7077  -1.7077  -1.6590  -1.6590  -1.5832  -1.5832  -1.4836  -1.4836
    -1.3811  -1.3811  -1.3048  -1.3048  -1.2858  -1.2858  -1.1913  -1.1913
    -0.6905  -0.6905  -0.6648  -0.6648  -0.5950  -0.5950  -0.5339  -0.5338
    -0.4339  -0.4339  -0.3330  -0.3329  -0.1518  -0.1518  -0.0588  -0.0588
     0.0658   0.0658   1.7147   1.7147   1.7349   1.7349   1.8384   1.8384
     1.8667   1.8667   1.9489   1.9489   2.0637   2.0637   2.0997   2.0997
     2.1261   2.1261   2.1680   2.1680   2.1965   2.1965   2.2235   2.2236
     2.2945   2.2945   2.3069   2.3069   2.3294   2.3294   2.4444   2.4444
     2.4508   2.4508   2.4795   2.4795   2.5127   2.5128   2.5185   2.5185

          k = 0.1876 0.3250 0.0000 ( 24867 PWs)   bands (ev):

   -55.5284 -55.5284 -55.5211 -55.5211 -55.5203 -55.5203 -55.4695 -55.4695
   -55.4611 -55.4611 -55.4610 -55.4610 -55.4534 -55.4534 -55.4470 -55.4470
   -55.4466 -55.4466 -33.0122 -33.0122 -33.0068 -33.0068 -32.9953 -32.9953
   -32.9619 -32.9619 -32.9522 -32.9522 -32.9443 -32.9443 -32.9355 -32.9355
   -32.9113 -32.9113 -32.8878 -32.8878 -30.9870 -30.9869 -30.9788 -30.9787
   -30.9557 -30.9557 -30.9424 -30.9424 -30.9298 -30.9298 -30.9204 -30.9204
   -30.9095 -30.9095 -30.8875 -30.8875 -30.8763 -30.8762 -30.8672 -30.8672
   -30.8544 -30.8544 -30.8381 -30.8380 -30.8266 -30.8266 -30.8140 -30.8140
   -30.8135 -30.8135 -30.8032 -30.8032 -30.7828 -30.7828 -30.7546 -30.7546
   -13.9217 -13.9217 -13.5463 -13.5463 -13.2620 -13.2620 -13.2507 -13.2507
   -13.0560 -13.0560 -12.8787 -12.8787 -12.8664 -12.8664 -12.8507 -12.8507
   -12.7694 -12.7694 -12.7669 -12.7669 -12.7107 -12.7107 -12.6357 -12.6357
   -12.6036 -12.6036 -12.5820 -12.5820 -12.5693 -12.5693 -12.5141 -12.5141
   -12.4143 -12.4143 -12.3986 -12.3986  -5.3575  -5.3575  -5.1457  -5.1457
    -5.0485  -5.0485  -5.0223  -5.0223  -4.8675  -4.8675  -4.8123  -4.8123
    -4.7214  -4.7214  -4.7074  -4.7074  -4.5973  -4.5973  -4.5668  -4.5668
    -4.5354  -4.5354  -4.4616  -4.4616  -4.3184  -4.3184  -4.2469  -4.2469
    -4.0111  -4.0111  -3.9929  -3.9929  -3.8688  -3.8688  -3.8451  -3.8451
    -3.8383  -3.8383  -3.7315  -3.7315  -3.7016  -3.7016  -3.6578  -3.6578
    -3.5792  -3.5792  -3.5101  -3.5101  -3.1619  -3.1619  -3.0991  -3.0991
    -3.0710  -3.0710  -3.0382  -3.0382  -2.9847  -2.9847  -2.9141  -2.9141
    -2.8456  -2.8455  -2.7964  -2.7964  -2.7438  -2.7438  -2.7125  -2.7125
    -2.7016  -2.7016  -2.3137  -2.3136  -2.1424  -2.1424  -2.1113  -2.1112
    -2.0597  -2.0597  -2.0321  -2.0321  -1.9955  -1.9955  -1.9627  -1.9627
    -1.9458  -1.9457  -1.8928  -1.8928  -1.8781  -1.8781  -1.7685  -1.7685
    -1.6973  -1.6973  -1.6514  -1.6514  -1.5608  -1.5608  -1.5008  -1.5007
    -1.3968  -1.3968  -1.3237  -1.3237  -1.2912  -1.2912  -1.1902  -1.1901
    -0.7023  -0.7023  -0.6780  -0.6780  -0.6092  -0.6092  -0.5445  -0.5444
    -0.4568  -0.4568  -0.3695  -0.3695  -0.1330  -0.1330  -0.0317  -0.0317
     0.0855   0.0855   1.7078   1.7078   1.7276   1.7276   1.8315   1.8315
     1.8658   1.8658   1.9427   1.9427   2.0580   2.0580   2.0857   2.0857
     2.1163   2.1163   2.1783   2.1783   2.1982   2.1983   2.2332   2.2332
     2.2975   2.2976   2.3119   2.3119   2.3386   2.3386   2.4335   2.4335
     2.4681   2.4681   2.4843   2.4843   2.5054   2.5054   2.5376   2.5376

          k = 0.1732 0.3000 0.0000 ( 24853 PWs)   bands (ev):

   -55.5283 -55.5283 -55.5207 -55.5207 -55.5200 -55.5200 -55.4693 -55.4693
   -55.4611 -55.4611 -55.4608 -55.4608 -55.4532 -55.4532 -55.4466 -55.4466
   -55.4458 -55.4458 -33.0114 -33.0114 -33.0061 -33.0061 -32.9950 -32.9949
   -32.9614 -32.9613 -32.9516 -32.9516 -32.9438 -32.9438 -32.9349 -32.9349
   -32.9126 -32.9126 -32.8868 -32.8868 -30.9860 -30.9859 -30.9776 -30.9775
   -30.9548 -30.9548 -30.9417 -30.9416 -30.9291 -30.9291 -30.9199 -30.9199
   -30.9098 -30.9098 -30.8882 -30.8882 -30.8764 -30.8764 -30.8667 -30.8666
   -30.8554 -30.8554 -30.8375 -30.8374 -30.8262 -30.8262 -30.8137 -30.8137
   -30.8130 -30.8130 -30.8028 -30.8028 -30.7839 -30.7839 -30.7532 -30.7532
   -13.9399 -13.9399 -13.5133 -13.5133 -13.2547 -13.2547 -13.2438 -13.2438
   -13.0633 -13.0633 -12.8854 -12.8854 -12.8709 -12.8709 -12.8657 -12.8657
   -12.7856 -12.7856 -12.7644 -12.7644 -12.7073 -12.7073 -12.6237 -12.6237
   -12.5908 -12.5908 -12.5898 -12.5898 -12.5763 -12.5763 -12.5175 -12.5175
   -12.4095 -12.4095 -12.3965 -12.3965  -5.3320  -5.3320  -5.1688  -5.1688
    -5.0428  -5.0428  -5.0184  -5.0184  -4.8395  -4.8395  -4.7794  -4.7794
    -4.7423  -4.7423  -4.6802  -4.6802  -4.6175  -4.6175  -4.5799  -4.5799
    -4.5501  -4.5501  -4.4380  -4.4380  -4.2886  -4.2886  -4.2228  -4.2228
    -4.0149  -4.0149  -3.9983  -3.9983  -3.8766  -3.8766  -3.8557  -3.8557
    -3.8463  -3.8463  -3.7379  -3.7379  -3.7111  -3.7111  -3.6953  -3.6953
    -3.6016  -3.6016  -3.5410  -3.5410  -3.2005  -3.2005  -3.1592  -3.1591
    -3.1271  -3.1271  -3.0863  -3.0863  -2.9754  -2.9753  -2.8919  -2.8919
    -2.8303  -2.8303  -2.7826  -2.7826  -2.7114  -2.7114  -2.6857  -2.6857
    -2.6547  -2.6547  -2.2829  -2.2829  -2.1458  -2.1458  -2.1409  -2.1409
    -2.0614  -2.0614  -2.0294  -2.0294  -1.9726  -1.9726  -1.9405  -1.9405
    -1.9168  -1.9168  -1.8676  -1.8676  -1.8584  -1.8584  -1.7520  -1.7520
    -1.6818  -1.6818  -1.6429  -1.6429  -1.5417  -1.5416  -1.5148  -1.5148
    -1.4116  -1.4115  -1.3440  -1.3440  -1.2972  -1.2971  -1.1893  -1.1893
    -0.7154  -0.7154  -0.6913  -0.6913  -0.6230  -0.6229  -0.5562  -0.5561
    -0.4806  -0.4806  -0.4072  -0.4071  -0.1114  -0.1114  -0.0025  -0.0025
     0.1059   0.1059   1.6965   1.6965   1.7157   1.7157   1.8326   1.8327
     1.8696   1.8696   1.9402   1.9402   2.0527   2.0527   2.0729   2.0730
     2.1066   2.1066   2.1781   2.1781   2.2070   2.2070   2.2457   2.2457
     2.2939   2.2939   2.3203   2.3203   2.3584   2.3584   2.4263   2.4263
     2.4668   2.4669   2.4950   2.4950   2.5106   2.5107   2.5649   2.5652

          k = 0.1588 0.2750 0.0000 ( 24845 PWs)   bands (ev):

   -55.5281 -55.5281 -55.5204 -55.5204 -55.5202 -55.5202 -55.4692 -55.4692
   -55.4613 -55.4613 -55.4605 -55.4605 -55.4532 -55.4532 -55.4465 -55.4465
   -55.4453 -55.4453 -33.0110 -33.0110 -33.0053 -33.0052 -32.9950 -32.9950
   -32.9609 -32.9609 -32.9510 -32.9510 -32.9432 -32.9432 -32.9348 -32.9348
   -32.9147 -32.9147 -32.8855 -32.8855 -30.9853 -30.9852 -30.9763 -30.9762
   -30.9535 -30.9535 -30.9414 -30.9414 -30.9283 -30.9283 -30.9194 -30.9194
   -30.9103 -30.9103 -30.8894 -30.8894 -30.8775 -30.8775 -30.8661 -30.8661
   -30.8566 -30.8566 -30.8374 -30.8374 -30.8263 -30.8263 -30.8137 -30.8137
   -30.8122 -30.8122 -30.8025 -30.8025 -30.7854 -30.7854 -30.7510 -30.7510
   -13.9568 -13.9568 -13.4797 -13.4797 -13.2465 -13.2465 -13.2360 -13.2360
   -13.0702 -13.0702 -12.9043 -12.9043 -12.8910 -12.8910 -12.8525 -12.8525
   -12.8036 -12.8036 -12.7616 -12.7616 -12.7034 -12.7034 -12.6124 -12.6124
   -12.5980 -12.5980 -12.5835 -12.5835 -12.5785 -12.5785 -12.5220 -12.5220
   -12.4049 -12.4049 -12.3943 -12.3943  -5.3037  -5.3037  -5.1907  -5.1907
    -5.0349  -5.0349  -5.0123  -5.0123  -4.8117  -4.8117  -4.7612  -4.7612
    -4.7433  -4.7433  -4.6568  -4.6568  -4.6370  -4.6370  -4.5939  -4.5939
    -4.5665  -4.5665  -4.4116  -4.4116  -4.2592  -4.2592  -4.1992  -4.1991
    -4.0186  -4.0186  -4.0036  -4.0036  -3.8850  -3.8850  -3.8660  -3.8660
    -3.8542  -3.8542  -3.7837  -3.7837  -3.7183  -3.7183  -3.6947  -3.6946
    -3.6247  -3.6247  -3.5724  -3.5724  -3.2512  -3.2512  -3.2327  -3.2327
    -3.1965  -3.1965  -3.0946  -3.0946  -2.9639  -2.9638  -2.8653  -2.8653
    -2.8117  -2.8116  -2.7681  -2.7681  -2.6797  -2.6797  -2.6634  -2.6633
    -2.6027  -2.6027  -2.2604  -2.2604  -2.1744  -2.1744  -2.1436  -2.1436
    -2.0642  -2.0641  -2.0434  -2.0433  -1.9544  -1.9544  -1.9185  -1.9185
    -1.8856  -1.8855  -1.8398  -1.8397  -1.8300  -1.8300  -1.7396  -1.7396
    -1.6606  -1.6605  -1.6329  -1.6329  -1.5345  -1.5345  -1.5185  -1.5185
    -1.4239  -1.4239  -1.3643  -1.3643  -1.3039  -1.3039  -1.1887  -1.1887
    -0.7287  -0.7287  -0.7050  -0.7050  -0.6367  -0.6366  -0.5695  -0.5695
    -0.5048  -0.5048  -0.4461  -0.4461  -0.0892  -0.0892   0.0262   0.0262
     0.1238   0.1238   1.6781   1.6782   1.6955   1.6956   1.8389   1.8389
     1.8753   1.8753   1.9383   1.9383   2.0458   2.0458   2.0637   2.0637
     2.0962   2.0963   2.1710   2.1710   2.2156   2.2157   2.2617   2.2617
     2.2870   2.2870   2.3288   2.3289   2.3823   2.3823   2.4226   2.4227
     2.4606   2.4606   2.4852   2.4852   2.5401   2.5402   2.5836   2.5836

          k = 0.1443 0.2500 0.0000 ( 24813 PWs)   bands (ev):

   -55.5273 -55.5273 -55.5200 -55.5200 -55.5193 -55.5193 -55.4683 -55.4683
   -55.4608 -55.4608 -55.4599 -55.4599 -55.4524 -55.4524 -55.4459 -55.4459
   -55.4447 -55.4447 -33.0102 -33.0102 -33.0039 -33.0038 -32.9944 -32.9943
   -32.9600 -32.9599 -32.9499 -32.9498 -32.9423 -32.9423 -32.9340 -32.9340
   -32.9156 -32.9156 -32.8823 -32.8823 -30.9842 -30.9841 -30.9747 -30.9745
   -30.9520 -30.9520 -30.9406 -30.9406 -30.9275 -30.9274 -30.9185 -30.9185
   -30.9101 -30.9101 -30.8907 -30.8907 -30.8779 -30.8778 -30.8649 -30.8648
   -30.8571 -30.8571 -30.8366 -30.8366 -30.8253 -30.8253 -30.8128 -30.8127
   -30.8107 -30.8106 -30.8011 -30.8010 -30.7854 -30.7853 -30.7475 -30.7475
   -13.9722 -13.9722 -13.4459 -13.4459 -13.2375 -13.2374 -13.2274 -13.2274
   -13.0765 -13.0765 -12.9233 -12.9233 -12.9112 -12.9112 -12.8393 -12.8393
   -12.8235 -12.8235 -12.7586 -12.7586 -12.6992 -12.6992 -12.6062 -12.6062
   -12.6021 -12.6021 -12.5906 -12.5906 -12.5674 -12.5674 -12.5273 -12.5273
   -12.4005 -12.4005 -12.3919 -12.3919  -5.2727  -5.2727  -5.2101  -5.2101
    -5.0251  -5.0251  -5.0042  -5.0042  -4.7974  -4.7974  -4.7621  -4.7621
    -4.7071  -4.7071  -4.6551  -4.6551  -4.6402  -4.6402  -4.6059  -4.6059
    -4.5835  -4.5835  -4.3823  -4.3823  -4.2300  -4.2300  -4.1758  -4.1758
    -4.0218  -4.0218  -4.0086  -4.0086  -3.8941  -3.8941  -3.8764  -3.8764
    -3.8659  -3.8659  -3.8304  -3.8304  -3.7192  -3.7192  -3.6959  -3.6959
    -3.6484  -3.6484  -3.6041  -3.6041  -3.3085  -3.3085  -3.3042  -3.3042
    -3.2662  -3.2662  -3.0943  -3.0943  -2.9518  -2.9518  -2.8365  -2.8365
    -2.7911  -2.7910  -2.7524  -2.7524  -2.6519  -2.6519  -2.6373  -2.6373
    -2.5543  -2.5543  -2.2468  -2.2468  -2.2061  -2.2061  -2.1404  -2.1404
    -2.0651  -2.0651  -2.0587  -2.0586  -1.9462  -1.9462  -1.8943  -1.8943
    -1.8580  -1.8580  -1.8126  -1.8125  -1.8018  -1.8018  -1.7296  -1.7296
    -1.6363  -1.6363  -1.6202  -1.6202  -1.5360  -1.5360  -1.5120  -1.5120
    -1.4321  -1.4321  -1.3810  -1.3810  -1.3104  -1.3104  -1.1883  -1.1883
    -0.7404  -0.7404  -0.7182  -0.7182  -0.6506  -0.6505  -0.5846  -0.5845
    -0.5285  -0.5285  -0.4814  -0.4813  -0.0666  -0.0666   0.0542   0.0543
     0.1404   0.1404   1.6573   1.6573   1.6722   1.6722   1.8512   1.8512
     1.8842   1.8842   1.9403   1.9403   2.0366   2.0366   2.0601   2.0601
     2.0893   2.0893   2.1657   2.1657   2.2196   2.2197   2.2766   2.2766
     2.2834   2.2834   2.3329   2.3329   2.4058   2.4058   2.4235   2.4235
     2.4550   2.4550   2.4780   2.4780   2.5658   2.5658   2.5989   2.5989

          k = 0.1299 0.2250 0.0000 ( 24801 PWs)   bands (ev):

   -55.5271 -55.5271 -55.5199 -55.5199 -55.5189 -55.5189 -55.4684 -55.4684
   -55.4606 -55.4606 -55.4594 -55.4594 -55.4525 -55.4525 -55.4455 -55.4455
   -55.4443 -55.4443 -33.0098 -33.0097 -33.0030 -33.0029 -32.9941 -32.9941
   -32.9592 -32.9591 -32.9489 -32.9489 -32.9414 -32.9414 -32.9334 -32.9334
   -32.9168 -32.9168 -32.8825 -32.8825 -30.9833 -30.9832 -30.9732 -30.9731
   -30.9507 -30.9507 -30.9402 -30.9402 -30.9267 -30.9267 -30.9177 -30.9177
   -30.9109 -30.9109 -30.8915 -30.8915 -30.8784 -30.8784 -30.8643 -30.8643
   -30.8577 -30.8577 -30.8363 -30.8362 -30.8250 -30.8250 -30.8123 -30.8123
   -30.8106 -30.8106 -30.8003 -30.8003 -30.7857 -30.7857 -30.7471 -30.7471
   -13.9864 -13.9864 -13.4115 -13.4115 -13.2275 -13.2275 -13.2179 -13.2178
   -13.0824 -13.0824 -12.9421 -12.9421 -12.9312 -12.9312 -12.8453 -12.8453
   -12.8259 -12.8259 -12.7554 -12.7554 -12.6946 -12.6946 -12.6145 -12.6145
   -12.5981 -12.5981 -12.5924 -12.5924 -12.5573 -12.5573 -12.5335 -12.5335
   -12.3964 -12.3963 -12.3895 -12.3895  -5.2447  -5.2447  -5.2228  -5.2228
    -5.0133  -5.0133  -4.9940  -4.9940  -4.8081  -4.8081  -4.7365  -4.7365
    -4.6756  -4.6756  -4.6686  -4.6686  -4.6386  -4.6386  -4.6084  -4.6083
    -4.5992  -4.5992  -4.3505  -4.3505  -4.2017  -4.2017  -4.1530  -4.1530
    -4.0247  -4.0247  -4.0132  -4.0132  -3.9072  -3.9072  -3.8912  -3.8912
    -3.8864  -3.8864  -3.8554  -3.8554  -3.7220  -3.7220  -3.7007  -3.7007
    -3.6727  -3.6726  -3.6360  -3.6359  -3.3749  -3.3749  -3.3647  -3.3647
    -3.3321  -3.3321  -3.0912  -3.0912  -2.9396  -2.9396  -2.8073  -2.8073
    -2.7695  -2.7695  -2.7339  -2.7339  -2.6294  -2.6294  -2.6074  -2.6074
    -2.5108  -2.5108  -2.2435  -2.2435  -2.2365  -2.2365  -2.1402  -2.1402
    -2.0806  -2.0806  -2.0544  -2.0544  -1.9417  -1.9417  -1.8699  -1.8699
    -1.8402  -1.8401  -1.7876  -1.7876  -1.7791  -1.7790  -1.7204  -1.7204
    -1.6141  -1.6140  -1.6039  -1.6039  -1.5321  -1.5321  -1.5085  -1.5084
    -1.4399  -1.4399  -1.3908  -1.3907  -1.3165  -1.3165  -1.1889  -1.1889
    -0.7537  -0.7537  -0.7310  -0.7310  -0.6652  -0.6651  -0.6018  -0.6018
    -0.5528  -0.5528  -0.5155  -0.5154  -0.0441  -0.0441   0.0812   0.0812
     0.1547   0.1547   1.6336   1.6336   1.6455   1.6455   1.8654   1.8655
     1.8944   1.8944   1.9450   1.9450   2.0281   2.0281   2.0594   2.0594
     2.0847   2.0847   2.1598   2.1598   2.2193   2.2194   2.2690   2.2690
     2.2992   2.2992   2.3297   2.3297   2.4160   2.4160   2.4326   2.4326
     2.4524   2.4524   2.4815   2.4815   2.5770   2.5770   2.6168   2.6168

          k = 0.1155 0.2000 0.0000 ( 24819 PWs)   bands (ev):

   -55.5266 -55.5266 -55.5203 -55.5203 -55.5200 -55.5200 -55.4680 -55.4680
   -55.4607 -55.4607 -55.4606 -55.4606 -55.4527 -55.4527 -55.4458 -55.4458
   -55.4454 -55.4454 -33.0108 -33.0108 -33.0040 -33.0039 -32.9948 -32.9947
   -32.9599 -32.9598 -32.9498 -32.9497 -32.9418 -32.9418 -32.9353 -32.9353
   -32.9184 -32.9183 -32.8796 -32.8796 -30.9840 -30.9839 -30.9731 -30.9730
   -30.9517 -30.9516 -30.9404 -30.9404 -30.9273 -30.9273 -30.9182 -30.9182
   -30.9127 -30.9126 -30.8930 -30.8930 -30.8801 -30.8800 -30.8651 -30.8650
   -30.8587 -30.8587 -30.8372 -30.8371 -30.8250 -30.8250 -30.8130 -30.8130
   -30.8108 -30.8108 -30.8005 -30.8005 -30.7872 -30.7872 -30.7431 -30.7431
   -13.9990 -13.9990 -13.3768 -13.3768 -13.2168 -13.2168 -13.2077 -13.2077
   -13.0878 -13.0878 -12.9610 -12.9610 -12.9513 -12.9513 -12.8686 -12.8686
   -12.8126 -12.8126 -12.7522 -12.7522 -12.6897 -12.6897 -12.6229 -12.6229
   -12.6050 -12.6050 -12.5841 -12.5841 -12.5482 -12.5482 -12.5405 -12.5405
   -12.3925 -12.3925 -12.3872 -12.3872  -5.2499  -5.2499  -5.1975  -5.1975
    -5.0002  -5.0002  -4.9826  -4.9825  -4.8231  -4.8231  -4.7076  -4.7075
    -4.6881  -4.6881  -4.6617  -4.6617  -4.6368  -4.6368  -4.6125  -4.6124
    -4.5936  -4.5936  -4.3163  -4.3163  -4.1746  -4.1745  -4.1309  -4.1309
    -4.0275  -4.0275  -4.0175  -4.0174  -3.9359  -3.9359  -3.9081  -3.9081
    -3.8968  -3.8968  -3.8667  -3.8667  -3.7294  -3.7294  -3.7109  -3.7109
    -3.6975  -3.6975  -3.6680  -3.6680  -3.4377  -3.4377  -3.4232  -3.4232
    -3.3918  -3.3918  -3.0874  -3.0874  -2.9280  -2.9279  -2.7795  -2.7795
    -2.7483  -2.7483  -2.7127  -2.7127  -2.6102  -2.6102  -2.5775  -2.5775
    -2.4700  -2.4700  -2.2675  -2.2674  -2.2395  -2.2395  -2.1441  -2.1441
    -2.0993  -2.0992  -2.0413  -2.0413  -1.9375  -1.9375  -1.8504  -1.8504
    -1.8309  -1.8309  -1.7716  -1.7716  -1.7595  -1.7594  -1.7105  -1.7105
    -1.5994  -1.5994  -1.5834  -1.5834  -1.5269  -1.5269  -1.4987  -1.4987
    -1.4488  -1.4488  -1.3924  -1.3924  -1.3214  -1.3214  -1.1895  -1.1895
    -0.7683  -0.7683  -0.7440  -0.7440  -0.6819  -0.6818  -0.6221  -0.6220
    -0.5785  -0.5785  -0.5478  -0.5477  -0.0232  -0.0232   0.1057   0.1057
     0.1709   0.1709   1.6082   1.6083   1.6170   1.6171   1.8794   1.8794
     1.9024   1.9024   1.9532   1.9532   2.0195   2.0195   2.0594   2.0594
     2.0821   2.0821   2.1545   2.1545   2.2157   2.2158   2.2571   2.2571
     2.3161   2.3161   2.3201   2.3201   2.4104   2.4104   2.4309   2.4309
     2.4689   2.4689   2.4967   2.4967   2.5757   2.5757   2.6391   2.6391

          k = 0.1010 0.1750 0.0000 ( 24821 PWs)   bands (ev):

   -55.5267 -55.5267 -55.5204 -55.5204 -55.5199 -55.5199 -55.4678 -55.4678
   -55.4611 -55.4611 -55.4607 -55.4607 -55.4525 -55.4525 -55.4459 -55.4459
   -55.4453 -55.4453 -33.0109 -33.0109 -33.0038 -33.0037 -32.9950 -32.9950
   -32.9601 -32.9600 -32.9499 -32.9499 -32.9417 -32.9417 -32.9357 -32.9356
   -32.9190 -32.9190 -32.8789 -32.8789 -30.9839 -30.9839 -30.9722 -30.9721
   -30.9512 -30.9511 -30.9406 -30.9406 -30.9269 -30.9269 -30.9178 -30.9178
   -30.9133 -30.9132 -30.8940 -30.8940 -30.8810 -30.8809 -30.8652 -30.8651
   -30.8595 -30.8595 -30.8375 -30.8374 -30.8252 -30.8251 -30.8133 -30.8133
   -30.8108 -30.8107 -30.8002 -30.8002 -30.7880 -30.7879 -30.7418 -30.7418
   -14.0103 -14.0103 -13.3420 -13.3420 -13.2052 -13.2052 -13.1966 -13.1966
   -13.0926 -13.0926 -12.9797 -12.9797 -12.9710 -12.9710 -12.8935 -12.8935
   -12.7996 -12.7996 -12.7488 -12.7488 -12.6847 -12.6847 -12.6311 -12.6311
   -12.6117 -12.6117 -12.5766 -12.5766 -12.5481 -12.5481 -12.5400 -12.5400
   -12.3891 -12.3890 -12.3849 -12.3849  -5.2639  -5.2639  -5.1597  -5.1596
    -4.9851  -4.9851  -4.9687  -4.9687  -4.8368  -4.8368  -4.7016  -4.7016
    -4.6919  -4.6918  -4.6743  -4.6742  -4.6383  -4.6382  -4.6069  -4.6069
    -4.5644  -4.5644  -4.2805  -4.2805  -4.1484  -4.1484  -4.1089  -4.1089
    -4.0306  -4.0306  -4.0206  -4.0206  -3.9647  -3.9647  -3.9180  -3.9180
    -3.9060  -3.9059  -3.8760  -3.8760  -3.7445  -3.7445  -3.7274  -3.7274
    -3.7207  -3.7207  -3.6979  -3.6979  -3.4917  -3.4917  -3.4816  -3.4816
    -3.4432  -3.4432  -3.0827  -3.0827  -2.9163  -2.9163  -2.7517  -2.7517
    -2.7255  -2.7255  -2.6903  -2.6903  -2.5934  -2.5934  -2.5485  -2.5485
    -2.4356  -2.4356  -2.2964  -2.2964  -2.2404  -2.2404  -2.1515  -2.1515
    -2.1171  -2.1170  -2.0273  -2.0273  -1.9321  -1.9321  -1.8457  -1.8457
    -1.8195  -1.8195  -1.7663  -1.7663  -1.7393  -1.7393  -1.7000  -1.7000
    -1.5891  -1.5891  -1.5623  -1.5623  -1.5215  -1.5214  -1.4836  -1.4835
    -1.4533  -1.4532  -1.3899  -1.3899  -1.3233  -1.3233  -1.1900  -1.1900
    -0.7828  -0.7828  -0.7544  -0.7544  -0.6970  -0.6970  -0.6422  -0.6421
    -0.6039  -0.6039  -0.5779  -0.5779  -0.0026  -0.0026   0.1277   0.1277
     0.1854   0.1854   1.5832   1.5832   1.5889   1.5889   1.8934   1.8934
     1.9109   1.9109   1.9647   1.9647   2.0137   2.0137   2.0591   2.0591
     2.0824   2.0824   2.1474   2.1474   2.2094   2.2095   2.2447   2.2447
     2.3054   2.3054   2.3335   2.3335   2.4013   2.4013   2.4215   2.4215
     2.4939   2.4939   2.5176   2.5177   2.5701   2.5701   2.6579   2.6579

          k = 0.0866 0.1500 0.0000 ( 24839 PWs)   bands (ev):

   -55.5266 -55.5266 -55.5208 -55.5208 -55.5206 -55.5206 -55.4679 -55.4679
   -55.4616 -55.4616 -55.4613 -55.4613 -55.4528 -55.4528 -55.4463 -55.4463
   -55.4459 -55.4459 -33.0118 -33.0117 -33.0044 -33.0043 -32.9957 -32.9957
   -32.9606 -32.9606 -32.9505 -32.9504 -32.9418 -32.9418 -32.9368 -32.9368
   -32.9208 -32.9208 -32.8779 -32.8779 -30.9847 -30.9846 -30.9715 -30.9714
   -30.9518 -30.9518 -30.9407 -30.9407 -30.9271 -30.9270 -30.9182 -30.9181
   -30.9144 -30.9144 -30.8954 -30.8954 -30.8825 -30.8825 -30.8661 -30.8661
   -30.8603 -30.8603 -30.8381 -30.8380 -30.8255 -30.8255 -30.8141 -30.8141
   -30.8110 -30.8109 -30.8007 -30.8006 -30.7893 -30.7893 -30.7401 -30.7401
   -14.0201 -14.0201 -13.3072 -13.3072 -13.1929 -13.1929 -13.1848 -13.1848
   -13.0968 -13.0968 -12.9983 -12.9983 -12.9907 -12.9907 -12.9197 -12.9197
   -12.7868 -12.7868 -12.7454 -12.7454 -12.6797 -12.6797 -12.6389 -12.6389
   -12.6181 -12.6181 -12.5700 -12.5700 -12.5561 -12.5561 -12.5329 -12.5329
   -12.3860 -12.3860 -12.3828 -12.3828  -5.2767  -5.2767  -5.1187  -5.1187
    -4.9686  -4.9686  -4.9536  -4.9535  -4.8493  -4.8493  -4.7136  -4.7136
    -4.7055  -4.7055  -4.6883  -4.6883  -4.6341  -4.6341  -4.5986  -4.5986
    -4.5227  -4.5227  -4.2422  -4.2422  -4.1243  -4.1243  -4.0878  -4.0878
    -4.0346  -4.0346  -4.0217  -4.0217  -3.9846  -3.9846  -3.9272  -3.9272
    -3.9148  -3.9148  -3.8849  -3.8849  -3.7715  -3.7715  -3.7505  -3.7505
    -3.7432  -3.7432  -3.7261  -3.7260  -3.5412  -3.5412  -3.5326  -3.5326
    -3.4842  -3.4842  -3.0780  -3.0780  -2.9053  -2.9053  -2.7266  -2.7265
    -2.7031  -2.7031  -2.6653  -2.6653  -2.5788  -2.5788  -2.5214  -2.5214
    -2.4059  -2.4059  -2.3240  -2.3240  -2.2407  -2.2407  -2.1606  -2.1606
    -2.1339  -2.1339  -2.0155  -2.0155  -1.9249  -1.9249  -1.8525  -1.8525
    -1.8114  -1.8113  -1.7617  -1.7617  -1.7222  -1.7222  -1.6913  -1.6913
    -1.5813  -1.5813  -1.5460  -1.5460  -1.5097  -1.5097  -1.4770  -1.4770
    -1.4459  -1.4459  -1.3876  -1.3876  -1.3200  -1.3200  -1.1901  -1.1901
    -0.7970  -0.7970  -0.7632  -0.7632  -0.7125  -0.7124  -0.6632  -0.6632
    -0.6289  -0.6289  -0.6061  -0.6060   0.0155   0.0155   0.1458   0.1458
     0.2005   0.2005   1.5575   1.5575   1.5609   1.5609   1.9048   1.9048
     1.9191   1.9191   1.9782   1.9782   2.0108   2.0108   2.0581   2.0581
     2.0851   2.0851   2.1416   2.1416   2.2018   2.2018   2.2314   2.2314
     2.2888   2.2888   2.3465   2.3465   2.3899   2.3899   2.4103   2.4103
     2.5179   2.5179   2.5389   2.5389   2.5652   2.5653   2.6757   2.6757

          k = 0.0722 0.1250 0.0000 ( 24811 PWs)   bands (ev):

   -55.5256 -55.5256 -55.5204 -55.5204 -55.5202 -55.5202 -55.4672 -55.4672
   -55.4611 -55.4611 -55.4606 -55.4606 -55.4522 -55.4522 -55.4458 -55.4458
   -55.4456 -55.4456 -33.0112 -33.0112 -33.0035 -33.0035 -32.9949 -32.9949
   -32.9596 -32.9596 -32.9495 -32.9495 -32.9405 -32.9405 -32.9361 -32.9361
   -32.9216 -32.9216 -32.8753 -32.8753 -30.9841 -30.9840 -30.9694 -30.9693
   -30.9514 -30.9514 -30.9396 -30.9396 -30.9258 -30.9257 -30.9175 -30.9175
   -30.9146 -30.9145 -30.8956 -30.8956 -30.8832 -30.8831 -30.8657 -30.8657
   -30.8596 -30.8596 -30.8376 -30.8376 -30.8248 -30.8248 -30.8134 -30.8134
   -30.8097 -30.8096 -30.7997 -30.7997 -30.7891 -30.7891 -30.7374 -30.7374
   -14.0283 -14.0283 -13.2723 -13.2723 -13.1797 -13.1797 -13.1721 -13.1721
   -13.1002 -13.1002 -13.0166 -13.0166 -13.0099 -13.0099 -12.9471 -12.9471
   -12.7744 -12.7744 -12.7421 -12.7421 -12.6757 -12.6757 -12.6452 -12.6452
   -12.6239 -12.6239 -12.5647 -12.5647 -12.5638 -12.5638 -12.5269 -12.5269
   -12.3834 -12.3834 -12.3809 -12.3809  -5.2873  -5.2873  -5.0755  -5.0755
    -4.9505  -4.9505  -4.9364  -4.9364  -4.8600  -4.8600  -4.7268  -4.7268
    -4.7239  -4.7239  -4.7089  -4.7089  -4.6451  -4.6451  -4.5733  -4.5732
    -4.4772  -4.4772  -4.2026  -4.2025  -4.1029  -4.1029  -4.0687  -4.0687
    -4.0373  -4.0373  -4.0200  -4.0200  -3.9954  -3.9954  -3.9356  -3.9356
    -3.9221  -3.9221  -3.8937  -3.8937  -3.8096  -3.8096  -3.7772  -3.7772
    -3.7677  -3.7677  -3.7508  -3.7508  -3.5978  -3.5978  -3.5629  -3.5629
    -3.5139  -3.5138  -3.0736  -3.0736  -2.8954  -2.8953  -2.7027  -2.7027
    -2.6809  -2.6809  -2.6386  -2.6386  -2.5668  -2.5668  -2.4966  -2.4966
    -2.3819  -2.3819  -2.3497  -2.3497  -2.2391  -2.2391  -2.1702  -2.1702
    -2.1491  -2.1490  -2.0069  -2.0069  -1.9168  -1.9168  -1.8631  -1.8631
    -1.8124  -1.8124  -1.7526  -1.7526  -1.7088  -1.7088  -1.6856  -1.6856
    -1.5735  -1.5735  -1.5335  -1.5335  -1.4932  -1.4932  -1.4734  -1.4734
    -1.4354  -1.4354  -1.3864  -1.3864  -1.3101  -1.3101  -1.1888  -1.1888
    -0.8086  -0.8086  -0.7679  -0.7679  -0.7251  -0.7251  -0.6823  -0.6822
    -0.6514  -0.6513  -0.6309  -0.6308   0.0326   0.0326   0.1615   0.1615
     0.2170   0.2170   1.5349   1.5349   1.5378   1.5378   1.9133   1.9133
     1.9286   1.9286   1.9948   1.9948   2.0144   2.0144   2.0583   2.0583
     2.0901   2.0901   2.1373   2.1373   2.1946   2.1946   2.2192   2.2192
     2.2725   2.2725   2.3579   2.3579   2.3798   2.3798   2.4008   2.4008
     2.5398   2.5398   2.5538   2.5538   2.5701   2.5701   2.6934   2.6934

          k = 0.0577 0.1000 0.0000 ( 24817 PWs)   bands (ev):

   -55.5262 -55.5262 -55.5204 -55.5204 -55.5201 -55.5201 -55.4672 -55.4672
   -55.4611 -55.4611 -55.4610 -55.4610 -55.4522 -55.4522 -55.4460 -55.4460
   -55.4457 -55.4457 -33.0111 -33.0111 -33.0030 -33.0030 -32.9957 -32.9957
   -32.9599 -32.9599 -32.9497 -32.9497 -32.9403 -32.9403 -32.9360 -32.9360
   -32.9228 -32.9227 -32.8756 -32.8756 -30.9837 -30.9837 -30.9679 -30.9678
   -30.9519 -30.9518 -30.9402 -30.9402 -30.9249 -30.9249 -30.9176 -30.9176
   -30.9152 -30.9152 -30.8978 -30.8978 -30.8843 -30.8843 -30.8663 -30.8663
   -30.8599 -30.8599 -30.8378 -30.8378 -30.8251 -30.8251 -30.8132 -30.8132
   -30.8095 -30.8095 -30.7991 -30.7991 -30.7892 -30.7892 -30.7378 -30.7378
   -14.0351 -14.0351 -13.2380 -13.2380 -13.1658 -13.1658 -13.1587 -13.1587
   -13.1031 -13.1031 -13.0346 -13.0346 -13.0288 -13.0288 -12.9759 -12.9759
   -12.7628 -12.7628 -12.7391 -12.7391 -12.6745 -12.6745 -12.6487 -12.6487
   -12.6290 -12.6290 -12.5725 -12.5725 -12.5597 -12.5597 -12.5219 -12.5219
   -12.3813 -12.3812 -12.3793 -12.3793  -5.2964  -5.2964  -5.0312  -5.0312
    -4.9313  -4.9313  -4.9178  -4.9178  -4.8688  -4.8688  -4.7500  -4.7500
    -4.7329  -4.7329  -4.7314  -4.7314  -4.6702  -4.6702  -4.5425  -4.5425
    -4.4310  -4.4310  -4.1629  -4.1629  -4.0860  -4.0859  -4.0562  -4.0562
    -4.0347  -4.0346  -4.0138  -4.0138  -3.9997  -3.9997  -3.9437  -3.9437
    -3.9284  -3.9284  -3.9025  -3.9025  -3.8550  -3.8550  -3.8053  -3.8053
    -3.7953  -3.7953  -3.7720  -3.7720  -3.6534  -3.6534  -3.5822  -3.5822
    -3.5335  -3.5335  -3.0696  -3.0696  -2.8865  -2.8865  -2.6811  -2.6811
    -2.6607  -2.6607  -2.6133  -2.6133  -2.5572  -2.5572  -2.4751  -2.4751
    -2.3737  -2.3737  -2.3654  -2.3654  -2.2379  -2.2379  -2.1799  -2.1799
    -2.1620  -2.1620  -2.0022  -2.0022  -1.9101  -1.9101  -1.8748  -1.8748
    -1.8181  -1.8180  -1.7425  -1.7425  -1.6988  -1.6988  -1.6834  -1.6834
    -1.5643  -1.5643  -1.5230  -1.5230  -1.4785  -1.4785  -1.4673  -1.4673
    -1.4291  -1.4291  -1.3864  -1.3864  -1.2957  -1.2957  -1.1875  -1.1875
    -0.8192  -0.8192  -0.7710  -0.7710  -0.7371  -0.7371  -0.7009  -0.7008
    -0.6725  -0.6724  -0.6538  -0.6537   0.0472   0.0472   0.1720   0.1720
     0.2315   0.2315   1.5120   1.5121   1.5164   1.5164   1.9189   1.9189
     1.9359   1.9359   2.0094   2.0094   2.0219   2.0219   2.0584   2.0584
     2.0937   2.0938   2.1300   2.1300   2.1860   2.1860   2.2074   2.2075
     2.2562   2.2562   2.3644   2.3644   2.3703   2.3703   2.3917   2.3917
     2.5515   2.5515   2.5616   2.5616   2.5851   2.5851   2.7081   2.7081

          k = 0.0433 0.0750 0.0000 ( 24829 PWs)   bands (ev):

   -55.5263 -55.5263 -55.5207 -55.5207 -55.5203 -55.5203 -55.4671 -55.4671
   -55.4613 -55.4613 -55.4612 -55.4612 -55.4520 -55.4520 -55.4468 -55.4468
   -55.4464 -55.4464 -33.0122 -33.0122 -33.0035 -33.0034 -32.9962 -32.9962
   -32.9606 -32.9606 -32.9505 -32.9505 -32.9399 -32.9399 -32.9361 -32.9361
   -32.9236 -32.9236 -32.8753 -32.8753 -30.9851 -30.9851 -30.9670 -30.9670
   -30.9527 -30.9526 -30.9404 -30.9404 -30.9242 -30.9242 -30.9184 -30.9184
   -30.9163 -30.9163 -30.8986 -30.8985 -30.8858 -30.8858 -30.8673 -30.8673
   -30.8599 -30.8599 -30.8384 -30.8384 -30.8256 -30.8256 -30.8131 -30.8131
   -30.8096 -30.8096 -30.7985 -30.7985 -30.7892 -30.7892 -30.7372 -30.7372
   -14.0405 -14.0405 -13.2036 -13.2036 -13.1514 -13.1514 -13.1446 -13.1446
   -13.1054 -13.1054 -13.0523 -13.0523 -13.0473 -13.0473 -13.0057 -13.0057
   -12.7520 -12.7520 -12.7365 -12.7365 -12.6775 -12.6775 -12.6477 -12.6477
   -12.6333 -12.6333 -12.5804 -12.5804 -12.5562 -12.5562 -12.5181 -12.5181
   -12.3797 -12.3797 -12.3780 -12.3780  -5.3035  -5.3035  -4.9860  -4.9860
    -4.9114  -4.9114  -4.8974  -4.8974  -4.8761  -4.8761  -4.7739  -4.7739
    -4.7555  -4.7555  -4.7394  -4.7394  -4.7024  -4.7023  -4.5138  -4.5138
    -4.3864  -4.3864  -4.1246  -4.1246  -4.0749  -4.0749  -4.0496  -4.0496
    -4.0284  -4.0284  -4.0038  -4.0038  -3.9966  -3.9966  -3.9514  -3.9514
    -3.9336  -3.9336  -3.9106  -3.9106  -3.9014  -3.9014  -3.8324  -3.8324
    -3.8228  -3.8228  -3.7897  -3.7896  -3.7056  -3.7056  -3.5944  -3.5943
    -3.5461  -3.5461  -3.0664  -3.0664  -2.8794  -2.8794  -2.6615  -2.6615
    -2.6434  -2.6434  -2.5944  -2.5944  -2.5470  -2.5470  -2.4579  -2.4579
    -2.3942  -2.3942  -2.3550  -2.3550  -2.2343  -2.2343  -2.1893  -2.1893
    -2.1725  -2.1725  -2.0000  -2.0000  -1.9062  -1.9062  -1.8857  -1.8857
    -1.8233  -1.8232  -1.7347  -1.7347  -1.6914  -1.6914  -1.6834  -1.6834
    -1.5533  -1.5533  -1.5143  -1.5143  -1.4692  -1.4692  -1.4601  -1.4601
    -1.4248  -1.4248  -1.3876  -1.3876  -1.2803  -1.2803  -1.1861  -1.1861
    -0.8269  -0.8269  -0.7714  -0.7714  -0.7461  -0.7461  -0.7168  -0.7167
    -0.6910  -0.6909  -0.6736  -0.6736   0.0570   0.0570   0.1791   0.1791
     0.2428   0.2428   1.4930   1.4930   1.4994   1.4994   1.9238   1.9238
     1.9412   1.9412   2.0245   2.0246   2.0350   2.0350   2.0602   2.0602
     2.0969   2.0969   2.1223   2.1223   2.1782   2.1782   2.1975   2.1976
     2.2410   2.2410   2.3607   2.3608   2.3689   2.3690   2.3840   2.3840
     2.5545   2.5545   2.5738   2.5738   2.6003   2.6003   2.7218   2.7218

          k = 0.0289 0.0500 0.0000 ( 24809 PWs)   bands (ev):

   -55.5256 -55.5256 -55.5203 -55.5203 -55.5201 -55.5201 -55.4661 -55.4661
   -55.4612 -55.4612 -55.4611 -55.4611 -55.4512 -55.4512 -55.4467 -55.4467
   -55.4463 -55.4463 -33.0120 -33.0120 -33.0030 -33.0030 -32.9959 -32.9958
   -32.9602 -32.9602 -32.9502 -32.9502 -32.9395 -32.9395 -32.9358 -32.9358
   -32.9233 -32.9233 -32.8724 -32.8724 -30.9847 -30.9847 -30.9656 -30.9656
   -30.9528 -30.9528 -30.9398 -30.9398 -30.9233 -30.9233 -30.9178 -30.9178
   -30.9165 -30.9165 -30.8991 -30.8991 -30.8864 -30.8863 -30.8675 -30.8675
   -30.8591 -30.8591 -30.8384 -30.8384 -30.8253 -30.8253 -30.8128 -30.8128
   -30.8080 -30.8080 -30.7978 -30.7978 -30.7890 -30.7890 -30.7344 -30.7344
   -14.0442 -14.0442 -13.1698 -13.1698 -13.1363 -13.1363 -13.1297 -13.1297
   -13.1069 -13.1069 -13.0697 -13.0697 -13.0655 -13.0655 -13.0360 -13.0360
   -12.7425 -12.7425 -12.7344 -12.7344 -12.6829 -12.6829 -12.6443 -12.6443
   -12.6366 -12.6366 -12.5873 -12.5873 -12.5536 -12.5536 -12.5153 -12.5153
   -12.3785 -12.3785 -12.3770 -12.3770  -5.3084  -5.3084  -4.9407  -4.9407
    -4.8918  -4.8918  -4.8813  -4.8813  -4.8758  -4.8758  -4.7980  -4.7980
    -4.7777  -4.7777  -4.7444  -4.7444  -4.7396  -4.7395  -4.4898  -4.4898
    -4.3459  -4.3459  -4.0934  -4.0934  -4.0668  -4.0668  -4.0439  -4.0439
    -4.0220  -4.0220  -4.0007  -4.0007  -3.9832  -3.9832  -3.9588  -3.9587
    -3.9460  -3.9459  -3.9340  -3.9340  -3.9162  -3.9162  -3.8536  -3.8536
    -3.8458  -3.8458  -3.8028  -3.8028  -3.7536  -3.7536  -3.6010  -3.6010
    -3.5531  -3.5531  -3.0640  -3.0640  -2.8741  -2.8741  -2.6441  -2.6441
    -2.6300  -2.6300  -2.5869  -2.5869  -2.5325  -2.5325  -2.4456  -2.4456
    -2.4104  -2.4103  -2.3475  -2.3475  -2.2292  -2.2292  -2.1969  -2.1969
    -2.1798  -2.1798  -1.9990  -1.9990  -1.9052  -1.9051  -1.8942  -1.8941
    -1.8260  -1.8260  -1.7296  -1.7296  -1.6880  -1.6880  -1.6823  -1.6823
    -1.5409  -1.5409  -1.5091  -1.5091  -1.4668  -1.4668  -1.4520  -1.4520
    -1.4204  -1.4203  -1.3879  -1.3879  -1.2669  -1.2669  -1.1831  -1.1831
    -0.8325  -0.8325  -0.7691  -0.7691  -0.7531  -0.7530  -0.7297  -0.7297
    -0.7052  -0.7051  -0.6893  -0.6893   0.0661   0.0661   0.1853   0.1853
     0.2536   0.2536   1.4793   1.4793   1.4873   1.4873   1.9270   1.9270
     1.9447   1.9447   2.0390   2.0390   2.0500   2.0500   2.0617   2.0617
     2.0968   2.0968   2.1155   2.1155   2.1707   2.1707   2.1896   2.1896
     2.2291   2.2291   2.3547   2.3547   2.3733   2.3733   2.3784   2.3784
     2.5588   2.5588   2.5846   2.5846   2.6123   2.6123   2.7341   2.7341

          k = 0.0144 0.0250 0.0000 ( 24811 PWs)   bands (ev):

   -55.5257 -55.5257 -55.5203 -55.5203 -55.5202 -55.5202 -55.4661 -55.4661
   -55.4612 -55.4612 -55.4611 -55.4611 -55.4511 -55.4511 -55.4469 -55.4469
   -55.4466 -55.4466 -33.0124 -33.0124 -33.0031 -33.0031 -32.9958 -32.9958
   -32.9603 -32.9603 -32.9504 -32.9504 -32.9390 -32.9390 -32.9356 -32.9356
   -32.9230 -32.9229 -32.8733 -32.8733 -30.9853 -30.9853 -30.9651 -30.9650
   -30.9530 -30.9530 -30.9397 -30.9396 -30.9226 -30.9226 -30.9176 -30.9176
   -30.9169 -30.9168 -30.8991 -30.8991 -30.8870 -30.8869 -30.8680 -30.8680
   -30.8597 -30.8597 -30.8385 -30.8385 -30.8254 -30.8254 -30.8125 -30.8125
   -30.8090 -30.8090 -30.7972 -30.7972 -30.7887 -30.7887 -30.7341 -30.7341
   -14.0465 -14.0465 -13.1367 -13.1367 -13.1208 -13.1208 -13.1140 -13.1140
   -13.1080 -13.1080 -13.0866 -13.0866 -13.0837 -13.0837 -13.0664 -13.0664
   -12.7354 -12.7354 -12.7331 -12.7331 -12.6879 -12.6879 -12.6408 -12.6408
   -12.6386 -12.6386 -12.5924 -12.5924 -12.5521 -12.5521 -12.5136 -12.5136
   -12.3779 -12.3779 -12.3763 -12.3763  -5.3123  -5.3123  -4.8984  -4.8984
    -4.8844  -4.8844  -4.8741  -4.8741  -4.8543  -4.8543  -4.8216  -4.8216
    -4.7972  -4.7972  -4.7775  -4.7775  -4.7474  -4.7474  -4.4740  -4.4740
    -4.3160  -4.3160  -4.0817  -4.0817  -4.0529  -4.0529  -4.0388  -4.0388
    -4.0139  -4.0139  -4.0022  -4.0022  -3.9770  -3.9769  -3.9715  -3.9715
    -3.9585  -3.9585  -3.9406  -3.9406  -3.9221  -3.9220  -3.8629  -3.8629
    -3.8589  -3.8589  -3.8116  -3.8116  -3.7935  -3.7935  -3.6046  -3.6046
    -3.5569  -3.5569  -3.0625  -3.0625  -2.8708  -2.8708  -2.6309  -2.6309
    -2.6199  -2.6199  -2.5884  -2.5884  -2.5172  -2.5172  -2.4399  -2.4399
    -2.4212  -2.4212  -2.3442  -2.3442  -2.2265  -2.2265  -2.2022  -2.2022
    -2.1842  -2.1842  -1.9991  -1.9991  -1.9060  -1.9059  -1.8992  -1.8992
    -1.8269  -1.8269  -1.7270  -1.7270  -1.6884  -1.6884  -1.6794  -1.6793
    -1.5285  -1.5285  -1.5098  -1.5098  -1.4669  -1.4669  -1.4456  -1.4456
    -1.4170  -1.4170  -1.3897  -1.3897  -1.2581  -1.2581  -1.1827  -1.1827
    -0.8360  -0.8360  -0.7659  -0.7659  -0.7577  -0.7576  -0.7405  -0.7405
    -0.7143  -0.7142  -0.7001  -0.7001   0.0703   0.0703   0.1864   0.1865
     0.2589   0.2589   1.4700   1.4700   1.4791   1.4791   1.9294   1.9294
     1.9471   1.9471   2.0516   2.0516   2.0620   2.0620   2.0657   2.0657
     2.0913   2.0913   2.1114   2.1114   2.1658   2.1659   2.1848   2.1849
     2.2206   2.2206   2.3506   2.3506   2.3729   2.3729   2.3749   2.3749
     2.5597   2.5597   2.5905   2.5905   2.6202   2.6202   2.7411   2.7411

          k = 0.0000 0.0000 0.0000 ( 24835 PWs)   bands (ev):

   -55.5260 -55.5260 -55.5208 -55.5208 -55.5207 -55.5207 -55.4663 -55.4663
   -55.4616 -55.4616 -55.4615 -55.4615 -55.4511 -55.4511 -55.4479 -55.4479
   -55.4476 -55.4476 -33.0143 -33.0143 -33.0045 -33.0045 -32.9962 -32.9962
   -32.9613 -32.9613 -32.9517 -32.9517 -32.9391 -32.9391 -32.9360 -32.9360
   -32.9226 -32.9226 -32.8743 -32.8743 -30.9881 -30.9881 -30.9658 -30.9658
   -30.9536 -30.9536 -30.9400 -30.9400 -30.9222 -30.9222 -30.9194 -30.9194
   -30.9167 -30.9167 -30.8992 -30.8992 -30.8879 -30.8879 -30.8693 -30.8693
   -30.8604 -30.8604 -30.8390 -30.8390 -30.8260 -30.8260 -30.8127 -30.8127
   -30.8099 -30.8099 -30.7971 -30.7971 -30.7889 -30.7889 -30.7347 -30.7347
   -14.0473 -14.0473 -13.1095 -13.1095 -13.1084 -13.1084 -13.1074 -13.1074
   -13.1045 -13.1045 -13.0994 -13.0994 -13.0993 -13.0993 -13.0886 -13.0886
   -12.7326 -12.7326 -12.7326 -12.7326 -12.6900 -12.6900 -12.6394 -12.6394
   -12.6393 -12.6393 -12.5944 -12.5944 -12.5517 -12.5517 -12.5132 -12.5132
   -12.3777 -12.3777 -12.3762 -12.3762  -5.3136  -5.3136  -4.8857  -4.8857
    -4.8671  -4.8671  -4.8646  -4.8646  -4.8588  -4.8588  -4.8204  -4.8204
    -4.8077  -4.8077  -4.8046  -4.8046  -4.7487  -4.7487  -4.4691  -4.4691
    -4.3051  -4.3051  -4.0808  -4.0808  -4.0461  -4.0461  -4.0353  -4.0353
    -4.0082  -4.0082  -4.0074  -4.0074  -3.9789  -3.9789  -3.9751  -3.9751
    -3.9566  -3.9566  -3.9444  -3.9444  -3.9261  -3.9261  -3.8676  -3.8676
    -3.8545  -3.8545  -3.8163  -3.8163  -3.8118  -3.8118  -3.6062  -3.6062
    -3.5586  -3.5586  -3.0621  -3.0621  -2.8697  -2.8697  -2.6262  -2.6262
    -2.6150  -2.6150  -2.5914  -2.5914  -2.5106  -2.5106  -2.4406  -2.4406
    -2.4236  -2.4236  -2.3435  -2.3435  -2.2259  -2.2259  -2.2043  -2.2043
    -2.1859  -2.1859  -1.9992  -1.9992  -1.9066  -1.9066  -1.9007  -1.9007
    -1.8271  -1.8271  -1.7262  -1.7262  -1.6887  -1.6887  -1.6782  -1.6782
    -1.5195  -1.5195  -1.5150  -1.5150  -1.4670  -1.4670  -1.4433  -1.4433
    -1.4160  -1.4160  -1.3905  -1.3905  -1.2550  -1.2550  -1.1828  -1.1828
    -0.8375  -0.8375  -0.7650  -0.7650  -0.7589  -0.7589  -0.7461  -0.7461
    -0.7179  -0.7179  -0.7045  -0.7045   0.0694   0.0694   0.1852   0.1852
     0.2580   0.2580   1.4661   1.4661   1.4756   1.4756   1.9295   1.9295
     1.9471   1.9471   2.0581   2.0581   2.0604   2.0604   2.0758   2.0758
     2.0832   2.0832   2.1094   2.1094   2.1634   2.1634   2.1824   2.1824
     2.2177   2.2177   2.3490   2.3490   2.3724   2.3724   2.3735   2.3735
     2.5598   2.5598   2.5922   2.5922   2.6236   2.6236   2.7432   2.7432

          k = 0.0000 0.0333 0.0000 ( 24815 PWs)   bands (ev):

   -55.5255 -55.5255 -55.5206 -55.5206 -55.5202 -55.5202 -55.4660 -55.4660
   -55.4614 -55.4614 -55.4612 -55.4612 -55.4511 -55.4511 -55.4472 -55.4472
   -55.4468 -55.4468 -33.0132 -33.0125 -33.0038 -33.0032 -32.9959 -32.9958
   -32.9607 -32.9604 -32.9509 -32.9505 -32.9393 -32.9391 -32.9360 -32.9358
   -32.9231 -32.9231 -32.8724 -32.8724 -30.9863 -30.9854 -30.9656 -30.9653
   -30.9531 -30.9530 -30.9398 -30.9396 -30.9228 -30.9227 -30.9184 -30.9177
   -30.9169 -30.9169 -30.8992 -30.8991 -30.8874 -30.8869 -30.8685 -30.8679
   -30.8594 -30.8593 -30.8387 -30.8387 -30.8256 -30.8255 -30.8127 -30.8127
   -30.8085 -30.8084 -30.7975 -30.7974 -30.7890 -30.7889 -30.7338 -30.7337
   -14.0462 -14.0462 -13.1397 -13.1390 -13.1318 -13.1313 -13.1079 -13.1079
   -13.1014 -13.1011 -13.1002 -13.0998 -13.0726 -13.0719 -13.0641 -13.0634
   -12.7363 -12.7363 -12.7333 -12.7332 -12.6872 -12.6872 -12.6413 -12.6412
   -12.6384 -12.6384 -12.5918 -12.5918 -12.5523 -12.5523 -12.5138 -12.5138
   -12.3780 -12.3780 -12.3764 -12.3764  -5.3115  -5.3115  -4.9039  -4.9033
    -4.8846  -4.8840  -4.8821  -4.8808  -4.8499  -4.8485  -4.8254  -4.8249
    -4.7914  -4.7906  -4.7730  -4.7722  -4.7472  -4.7469  -4.4762  -4.4757
    -4.3201  -4.3194  -4.0829  -4.0816  -4.0565  -4.0534  -4.0417  -4.0377
    -4.0155  -4.0151  -4.0036  -3.9998  -3.9766  -3.9764  -3.9706  -3.9690
    -3.9587  -3.9582  -3.9400  -3.9395  -3.9220  -3.9202  -3.8624  -3.8615
    -3.8589  -3.8583  -3.8108  -3.8092  -3.7896  -3.7874  -3.6044  -3.6043
    -3.5567  -3.5566  -3.0627  -3.0627  -2.8712  -2.8712  -2.6326  -2.6325
    -2.6214  -2.6214  -2.5881  -2.5879  -2.5195  -2.5195  -2.4408  -2.4398
    -2.4204  -2.4202  -2.3443  -2.3443  -2.2265  -2.2265  -2.2016  -2.2016
    -2.1838  -2.1837  -1.9990  -1.9990  -1.9064  -1.9050  -1.8994  -1.8981
    -1.8269  -1.8268  -1.7272  -1.7272  -1.6884  -1.6882  -1.6798  -1.6797
    -1.5304  -1.5302  -1.5099  -1.5085  -1.4678  -1.4660  -1.4469  -1.4459
    -1.4176  -1.4174  -1.3894  -1.3889  -1.2593  -1.2590  -1.1826  -1.1823
    -0.8358  -0.8356  -0.7675  -0.7660  -0.7575  -0.7575  -0.7401  -0.7383
    -0.7134  -0.7130  -0.6988  -0.6987   0.0692   0.0697   0.1868   0.1870
     0.2576   0.2582   1.4704   1.4707   1.4794   1.4797   1.9290   1.9290
     1.9466   1.9468   2.0491   2.0508   2.0609   2.0611   2.0631   2.0652
     2.0923   2.0927   2.1115   2.1121   2.1658   2.1667   2.1850   2.1855
     2.2215   2.2216   2.3509   2.3511   2.3734   2.3736   2.3751   2.3754
     2.5600   2.5601   2.5901   2.5902   2.6193   2.6194   2.7407   2.7407

          k = 0.0000 0.0667 0.0000 ( 24825 PWs)   bands (ev):

   -55.5260 -55.5260 -55.5207 -55.5207 -55.5203 -55.5203 -55.4667 -55.4667
   -55.4617 -55.4617 -55.4611 -55.4611 -55.4518 -55.4518 -55.4469 -55.4469
   -55.4464 -55.4464 -33.0124 -33.0121 -33.0036 -33.0032 -32.9963 -32.9962
   -32.9607 -32.9604 -32.9507 -32.9504 -32.9401 -32.9397 -32.9364 -32.9361
   -32.9236 -32.9236 -32.8740 -32.8739 -30.9853 -30.9852 -30.9664 -30.9662
   -30.9530 -30.9529 -30.9403 -30.9401 -30.9237 -30.9235 -30.9185 -30.9180
   -30.9166 -30.9163 -30.8993 -30.8989 -30.8862 -30.8859 -30.8676 -30.8674
   -30.8601 -30.8599 -30.8386 -30.8385 -30.8256 -30.8255 -30.8133 -30.8132
   -30.8094 -30.8091 -30.7986 -30.7983 -30.7896 -30.7894 -30.7355 -30.7353
   -14.0432 -14.0432 -13.1735 -13.1723 -13.1642 -13.1630 -13.1067 -13.1066
   -13.1003 -13.0999 -13.0978 -13.0972 -13.0404 -13.0390 -13.0332 -13.0318
   -12.7451 -12.7450 -12.7352 -12.7351 -12.6810 -12.6810 -12.6457 -12.6457
   -12.6356 -12.6355 -12.5853 -12.5853 -12.5545 -12.5542 -12.5162 -12.5159
   -12.3789 -12.3788 -12.3773 -12.3772  -5.3075  -5.3075  -4.9488  -4.9483
    -4.9224  -4.9211  -4.8801  -4.8794  -4.8493  -4.8488  -4.8199  -4.8193
    -4.7544  -4.7536  -4.7433  -4.7425  -4.7324  -4.7306  -4.4977  -4.4955
    -4.3594  -4.3563  -4.1041  -4.0951  -4.0774  -4.0644  -4.0547  -4.0384
    -4.0295  -4.0226  -4.0068  -4.0022  -3.9790  -3.9776  -3.9589  -3.9581
    -3.9395  -3.9366  -3.9304  -3.9279  -3.9169  -3.9124  -3.8561  -3.8527
    -3.8404  -3.8402  -3.7922  -3.7920  -3.7438  -3.7389  -3.6007  -3.5982
    -3.5526  -3.5504  -3.0649  -3.0644  -2.8758  -2.8753  -2.6497  -2.6489
    -2.6337  -2.6335  -2.5888  -2.5875  -2.5383  -2.5379  -2.4494  -2.4447
    -2.4075  -2.4072  -2.3497  -2.3492  -2.2310  -2.2308  -2.1952  -2.1941
    -2.1779  -2.1776  -1.9993  -1.9992  -1.9076  -1.9007  -1.8958  -1.8900
    -1.8254  -1.8252  -1.7310  -1.7309  -1.6897  -1.6869  -1.6839  -1.6825
    -1.5450  -1.5448  -1.5135  -1.5067  -1.4731  -1.4617  -1.4567  -1.4514
    -1.4223  -1.4221  -1.3896  -1.3866  -1.2722  -1.2697  -1.1852  -1.1832
    -0.8317  -0.8310  -0.7737  -0.7671  -0.7524  -0.7509  -0.7297  -0.7235
    -0.7025  -0.7004  -0.6851  -0.6851   0.0625   0.0636   0.1824   0.1826
     0.2495   0.2505   1.4830   1.4832   1.4906   1.4908   1.9255   1.9256
     1.9425   1.9438   2.0321   2.0368   2.0434   2.0455   2.0585   2.0636
     2.0973   2.0974   2.1151   2.1188   2.1700   2.1750   2.1893   2.1928
     2.2323   2.2326   2.3561   2.3564   2.3715   2.3721   2.3794   2.3800
     2.5569   2.5573   2.5811   2.5818   2.6089   2.6092   2.7304   2.7305

          k = 0.0000 0.1000 0.0000 ( 24805 PWs)   bands (ev):

   -55.5260 -55.5260 -55.5203 -55.5203 -55.5195 -55.5195 -55.4670 -55.4670
   -55.4608 -55.4608 -55.4604 -55.4604 -55.4518 -55.4518 -55.4462 -55.4461
   -55.4457 -55.4457 -33.0122 -33.0103 -33.0034 -33.0019 -32.9953 -32.9952
   -32.9596 -32.9595 -32.9495 -32.9494 -32.9392 -32.9392 -32.9355 -32.9353
   -32.9223 -32.9222 -32.8758 -32.8758 -30.9851 -30.9832 -30.9673 -30.9668
   -30.9517 -30.9515 -30.9400 -30.9397 -30.9249 -30.9237 -30.9179 -30.9177
   -30.9156 -30.9152 -30.8979 -30.8970 -30.8853 -30.8841 -30.8667 -30.8658
   -30.8595 -30.8593 -30.8374 -30.8374 -30.8249 -30.8246 -30.8122 -30.8121
   -30.8097 -30.8094 -30.7981 -30.7974 -30.7886 -30.7878 -30.7376 -30.7374
   -14.0382 -14.0382 -13.2075 -13.2057 -13.1971 -13.1953 -13.1045 -13.1045
   -13.0978 -13.0975 -13.0940 -13.0934 -13.0088 -13.0066 -13.0026 -13.0004
   -12.7564 -12.7563 -12.7385 -12.7384 -12.6742 -12.6741 -12.6505 -12.6505
   -12.6307 -12.6307 -12.5768 -12.5768 -12.5581 -12.5573 -12.5201 -12.5193
   -12.3804 -12.3802 -12.3786 -12.3784  -5.3008  -5.3008  -4.9937  -4.9937
    -4.9670  -4.9654  -4.8740  -4.8720  -4.8457  -4.8454  -4.8153  -4.8144
    -4.7375  -4.7353  -4.7147  -4.7146  -4.6948  -4.6916  -4.5302  -4.5230
    -4.4112  -4.4023  -4.1431  -4.1307  -4.0951  -4.0908  -4.0575  -4.0445
    -4.0374  -4.0258  -4.0098  -4.0092  -3.9809  -3.9746  -3.9536  -3.9533
    -3.9296  -3.9280  -3.9117  -3.9050  -3.8812  -3.8797  -3.8508  -3.8420
    -3.8119  -3.8112  -3.7579  -3.7539  -3.6911  -3.6835  -3.5935  -3.5853
    -3.5443  -3.5374  -3.0686  -3.0670  -2.8833  -2.8817  -2.6711  -2.6690
    -2.6499  -2.6495  -2.6028  -2.5993  -2.5573  -2.5558  -2.4610  -2.4502
    -2.3903  -2.3889  -2.3598  -2.3591  -2.2364  -2.2362  -2.1863  -2.1832
    -2.1686  -2.1675  -2.0008  -2.0007  -1.9116  -1.9010  -1.8858  -1.8787
    -1.8210  -1.8203  -1.7381  -1.7377  -1.6974  -1.6910  -1.6841  -1.6828
    -1.5594  -1.5578  -1.5239  -1.5110  -1.4846  -1.4724  -1.4563  -1.4521
    -1.4302  -1.4277  -1.3920  -1.3828  -1.2915  -1.2844  -1.1903  -1.1833
    -0.8232  -0.8223  -0.7759  -0.7627  -0.7431  -0.7386  -0.7148  -0.7047
    -0.6846  -0.6802  -0.6645  -0.6638   0.0530   0.0534   0.1752   0.1756
     0.2379   0.2381   1.4999   1.5018   1.5054   1.5074   1.9222   1.9229
     1.9382   1.9425   2.0147   2.0201   2.0280   2.0300   2.0568   2.0651
     2.0959   2.0974   2.1228   2.1276   2.1785   2.1880   2.1983   2.2051
     2.2476   2.2485   2.3641   2.3645   2.3678   2.3689   2.3870   2.3887
     2.5528   2.5539   2.5674   2.5692   2.5941   2.5943   2.7150   2.7161

          k = 0.0000 0.1333 0.0000 ( 24827 PWs)   bands (ev):

   -55.5268 -55.5268 -55.5203 -55.5203 -55.5202 -55.5202 -55.4678 -55.4678
   -55.4614 -55.4614 -55.4607 -55.4607 -55.4525 -55.4525 -55.4465 -55.4465
   -55.4455 -55.4455 -33.0119 -33.0107 -33.0036 -33.0030 -32.9960 -32.9958
   -32.9604 -32.9599 -32.9503 -32.9496 -32.9407 -32.9399 -32.9371 -32.9357
   -32.9220 -32.9217 -32.8780 -32.8780 -30.9854 -30.9830 -30.9693 -30.9686
   -30.9521 -30.9520 -30.9408 -30.9398 -30.9271 -30.9244 -30.9185 -30.9183
   -30.9150 -30.9147 -30.8971 -30.8966 -30.8839 -30.8834 -30.8663 -30.8660
   -30.8607 -30.8603 -30.8379 -30.8378 -30.8254 -30.8252 -30.8129 -30.8128
   -30.8108 -30.8108 -30.7992 -30.7989 -30.7889 -30.7884 -30.7397 -30.7396
   -14.0312 -14.0312 -13.2413 -13.2391 -13.2300 -13.2277 -13.1016 -13.1016
   -13.0942 -13.0938 -13.0891 -13.0884 -12.9781 -12.9751 -12.9728 -12.9697
   -12.7688 -12.7686 -12.7435 -12.7434 -12.6684 -12.6683 -12.6542 -12.6542
   -12.6240 -12.6240 -12.5675 -12.5674 -12.5634 -12.5616 -12.5258 -12.5239
   -12.3828 -12.3823 -12.3805 -12.3800  -5.2915  -5.2915  -5.0382  -5.0377
    -5.0116  -5.0096  -4.8659  -4.8619  -4.8409  -4.8400  -4.8101  -4.8088
    -4.7298  -4.7255  -4.6797  -4.6794  -4.6631  -4.6583  -4.5689  -4.5542
    -4.4682  -4.4509  -4.1866  -4.1709  -4.1309  -4.1251  -4.0538  -4.0514
    -4.0345  -4.0255  -4.0094  -4.0090  -3.9815  -3.9699  -3.9504  -3.9482
    -3.9212  -3.9205  -3.9017  -3.8961  -3.8519  -3.8365  -3.8279  -3.8234
    -3.7808  -3.7774  -3.7117  -3.7051  -3.6353  -3.6253  -3.5824  -3.5615
    -3.5309  -3.5139  -3.0739  -3.0702  -2.8937  -2.8900  -2.6954  -2.6913
    -2.6719  -2.6714  -2.6304  -2.6249  -2.5802  -2.5768  -2.4708  -2.4529
    -2.3782  -2.3775  -2.3719  -2.3701  -2.2401  -2.2397  -2.1763  -2.1704
    -2.1563  -2.1539  -2.0050  -2.0050  -1.9191  -1.9064  -1.8721  -1.8671
    -1.8143  -1.8122  -1.7491  -1.7487  -1.7105  -1.6994  -1.6855  -1.6834
    -1.5725  -1.5698  -1.5373  -1.5217  -1.5012  -1.4849  -1.4605  -1.4496
    -1.4393  -1.4332  -1.3990  -1.3789  -1.3161  -1.3024  -1.1977  -1.1813
    -0.8133  -0.8121  -0.7767  -0.7566  -0.7322  -0.7245  -0.6973  -0.6847
    -0.6644  -0.6559  -0.6402  -0.6401   0.0375   0.0393   0.1641   0.1654
     0.2215   0.2223   1.5253   1.5264   1.5287   1.5301   1.9151   1.9174
     1.9284   1.9386   1.9957   2.0008   2.0146   2.0153   2.0541   2.0657
     2.0919   2.0941   2.1280   2.1326   2.1877   2.1976   2.2094   2.2163
     2.2654   2.2668   2.3581   2.3604   2.3753   2.3766   2.3952   2.3990
     2.5420   2.5465   2.5490   2.5585   2.5729   2.5755   2.6958   2.6995

          k = 0.0000 0.1667 0.0000 ( 24829 PWs)   bands (ev):

   -55.5267 -55.5267 -55.5205 -55.5205 -55.5203 -55.5203 -55.4681 -55.4681
   -55.4613 -55.4613 -55.4606 -55.4606 -55.4528 -55.4528 -55.4461 -55.4461
   -55.4456 -55.4456 -33.0115 -33.0110 -33.0039 -33.0038 -32.9956 -32.9953
   -32.9604 -32.9599 -32.9500 -32.9498 -32.9414 -32.9403 -32.9372 -32.9357
   -32.9208 -32.9204 -32.8789 -32.8789 -30.9846 -30.9839 -30.9717 -30.9696
   -30.9522 -30.9518 -30.9415 -30.9384 -30.9285 -30.9249 -30.9193 -30.9184
   -30.9145 -30.9131 -30.8958 -30.8938 -30.8827 -30.8818 -30.8659 -30.8654
   -30.8607 -30.8598 -30.8379 -30.8376 -30.8255 -30.8251 -30.8133 -30.8131
   -30.8112 -30.8110 -30.8004 -30.7994 -30.7891 -30.7882 -30.7412 -30.7411
   -14.0221 -14.0221 -13.2749 -13.2722 -13.2627 -13.2600 -13.0977 -13.0977
   -13.0893 -13.0889 -13.0828 -13.0822 -12.9482 -12.9443 -12.9436 -12.9396
   -12.7817 -12.7815 -12.7501 -12.7500 -12.6647 -12.6645 -12.6551 -12.6550
   -12.6159 -12.6158 -12.5707 -12.5667 -12.5580 -12.5578 -12.5335 -12.5295
   -12.3859 -12.3851 -12.3826 -12.3819  -5.2794  -5.2793  -5.0807  -5.0795
    -5.0546  -5.0519  -4.8555  -4.8486  -4.8348  -4.8333  -4.8039  -4.8022
    -4.7200  -4.7124  -4.6552  -4.6533  -4.6403  -4.6359  -4.6023  -4.5831
    -4.5259  -4.4985  -4.2304  -4.2113  -4.1747  -4.1622  -4.0530  -4.0465
[...]
   -30.8110 -30.8102 -30.8023 -30.8015 -30.7773 -30.7750 -30.7638 -30.7627
   -13.7632 -13.7621 -13.7388 -13.7377 -13.4060 -13.3982 -13.1634 -13.1498
   -13.0095 -13.0094 -12.9377 -12.9377 -12.8075 -12.8069 -12.7866 -12.7774
   -12.7618 -12.7535 -12.7169 -12.7097 -12.7089 -12.7004 -12.6898 -12.6895
   -12.6869 -12.6778 -12.5538 -12.5527 -12.5352 -12.5344 -12.5171 -12.5167
   -12.4373 -12.4372 -12.4036 -12.4032  -5.4327  -5.4267  -5.1278  -5.1173
    -5.1015  -5.0914  -4.9529  -4.9517  -4.9051  -4.9008  -4.9002  -4.8910
    -4.8781  -4.8716  -4.6067  -4.5808  -4.5670  -4.5589  -4.5454  -4.5424
    -4.5325  -4.5233  -4.5032  -4.4834  -4.4650  -4.4323  -4.3538  -4.3225
    -4.0106  -3.9799  -3.8767  -3.8653  -3.8458  -3.8435  -3.7966  -3.7914
    -3.7882  -3.7804  -3.7749  -3.7716  -3.7327  -3.7274  -3.6905  -3.6053
    -3.2622  -3.2602  -3.2572  -3.2242  -3.1526  -3.1269  -3.1231  -3.0961
    -3.0940  -3.0598  -3.0228  -3.0131  -2.9633  -2.9448  -2.9189  -2.8883
    -2.8363  -2.8255  -2.7589  -2.7137  -2.6971  -2.6619  -2.6319  -2.5941
    -2.5894  -2.5755  -2.5702  -2.5316  -2.4054  -2.3710  -2.3607  -2.3328
    -2.1661  -2.1180  -2.0562  -2.0510  -2.0228  -2.0170  -2.0088  -1.9819
    -1.9691  -1.9509  -1.9295  -1.8893  -1.8856  -1.8641  -1.8590  -1.8524
    -1.8390  -1.7680  -1.7064  -1.6762  -1.6727  -1.6544  -1.4276  -1.4102
    -1.3699  -1.3361  -1.3155  -1.2902  -1.2712  -1.2210  -1.2157  -1.1223
    -0.6472  -0.6442  -0.6147  -0.6003  -0.5332  -0.5285  -0.4985  -0.4976
    -0.3362  -0.3334  -0.2180  -0.2042  -0.1887  -0.1673  -0.1234  -0.1226
    -0.0918  -0.0879   1.7144   1.7314   1.7380   1.7534   1.8747   1.8788
     1.8831   1.8983   1.9863   2.0009   2.0531   2.0706   2.0825   2.0896
     2.1432   2.1434   2.1567   2.1573   2.1691   2.1871   2.1994   2.2187
     2.2260   2.2343   2.2872   2.2980   2.3169   2.3363   2.3416   2.3630
     2.4492   2.4587   2.4607   2.4924   2.5146   2.5343   2.5548   2.5688

          k = 0.2165 0.5417 0.0000 ( 24820 PWs)   bands (ev):

   -55.5272 -55.5272 -55.5202 -55.5202 -55.5192 -55.5192 -55.4685 -55.4685
   -55.4607 -55.4607 -55.4590 -55.4590 -55.4519 -55.4519 -55.4471 -55.4471
   -55.4453 -55.4453 -33.0129 -33.0110 -33.0063 -33.0062 -32.9930 -32.9927
   -32.9621 -32.9597 -32.9536 -32.9516 -32.9436 -32.9428 -32.9313 -32.9293
   -32.9042 -32.9036 -32.8909 -32.8905 -30.9901 -30.9884 -30.9826 -30.9752
   -30.9590 -30.9550 -30.9468 -30.9377 -30.9338 -30.9262 -30.9211 -30.9150
   -30.9066 -30.9028 -30.8840 -30.8790 -30.8726 -30.8722 -30.8652 -30.8644
   -30.8495 -30.8481 -30.8381 -30.8362 -30.8281 -30.8233 -30.8126 -30.8126
   -30.8115 -30.8109 -30.8027 -30.8021 -30.7774 -30.7754 -30.7634 -30.7626
   -13.7656 -13.7647 -13.7412 -13.7403 -13.3860 -13.3778 -13.1835 -13.1705
   -13.0103 -13.0102 -12.9388 -12.9388 -12.8000 -12.7994 -12.7792 -12.7698
   -12.7545 -12.7460 -12.7192 -12.7130 -12.7106 -12.7048 -12.6972 -12.6968
   -12.6916 -12.6823 -12.5520 -12.5511 -12.5361 -12.5353 -12.5157 -12.5153
   -12.4371 -12.4370 -12.4041 -12.4037  -5.4365  -5.4315  -5.1118  -5.1002
    -5.0862  -5.0744  -4.9563  -4.9552  -4.9166  -4.9154  -4.9052  -4.8999
    -4.8940  -4.8865  -4.6000  -4.5740  -4.5546  -4.5474  -4.5424  -4.5416
    -4.5201  -4.5115  -4.5015  -4.4807  -4.4695  -4.4427  -4.3689  -4.3383
    -4.0134  -3.9839  -3.9005  -3.8864  -3.8470  -3.8450  -3.7962  -3.7915
    -3.7874  -3.7810  -3.7739  -3.7709  -3.7335  -3.7290  -3.6556  -3.5716
    -3.2857  -3.2580  -3.2560  -3.2478  -3.1479  -3.1210  -3.1174  -3.0968
    -3.0906  -3.0587  -3.0208  -3.0068  -2.9666  -2.9416  -2.9176  -2.8901
    -2.8360  -2.8286  -2.7677  -2.7297  -2.7060  -2.6713  -2.6207  -2.5868
    -2.5867  -2.5720  -2.5612  -2.5244  -2.4262  -2.3930  -2.3814  -2.3520
    -2.1500  -2.1090  -2.0486  -2.0477  -2.0155  -2.0141  -2.0089  -1.9829
    -1.9679  -1.9521  -1.9160  -1.8898  -1.8775  -1.8619  -1.8618  -1.8516
    -1.8243  -1.7595  -1.7082  -1.6780  -1.6749  -1.6616  -1.4195  -1.4126
    -1.3447  -1.3257  -1.3073  -1.2863  -1.2842  -1.2315  -1.2170  -1.1335
    -0.6523  -0.6443  -0.6207  -0.6046  -0.5333  -0.5312  -0.5094  -0.5040
    -0.3396  -0.3380  -0.2151  -0.2037  -0.1877  -0.1689  -0.1216  -0.1211
    -0.0895  -0.0863   1.7108   1.7250   1.7355   1.7485   1.8755   1.8785
     1.8827   1.8960   1.9882   1.9998   2.0576   2.0723   2.0840   2.0892
     2.1434   2.1502   2.1552   2.1595   2.1696   2.1862   2.2071   2.2169
     2.2283   2.2345   2.2908   2.3082   2.3162   2.3340   2.3397   2.3723
     2.4395   2.4582   2.4628   2.4981   2.5005   2.5316   2.5591   2.5661

          k = 0.2309 0.5333 0.0000 ( 24824 PWs)   bands (ev):

   -55.5269 -55.5269 -55.5206 -55.5206 -55.5191 -55.5191 -55.4682 -55.4682
   -55.4612 -55.4612 -55.4590 -55.4590 -55.4517 -55.4517 -55.4476 -55.4476
   -55.4454 -55.4454 -33.0138 -33.0125 -33.0066 -33.0065 -32.9930 -32.9927
   -32.9621 -32.9606 -32.9540 -32.9531 -32.9435 -32.9427 -32.9305 -32.9291
   -32.9036 -32.9032 -32.8903 -32.8900 -30.9912 -30.9900 -30.9820 -30.9765
   -30.9589 -30.9559 -30.9465 -30.9396 -30.9330 -30.9275 -30.9199 -30.9153
   -30.9053 -30.9026 -30.8830 -30.8792 -30.8730 -30.8725 -30.8652 -30.8646
   -30.8495 -30.8484 -30.8381 -30.8367 -30.8274 -30.8237 -30.8134 -30.8131
   -30.8113 -30.8112 -30.8027 -30.8022 -30.7770 -30.7752 -30.7629 -30.7620
   -13.7675 -13.7668 -13.7431 -13.7424 -13.3658 -13.3572 -13.2035 -13.1911
   -13.0110 -13.0109 -12.9397 -12.9397 -12.7928 -12.7923 -12.7720 -12.7625
   -12.7474 -12.7389 -12.7225 -12.7155 -12.7122 -12.7091 -12.7042 -12.7039
   -12.6963 -12.6871 -12.5505 -12.5496 -12.5370 -12.5362 -12.5145 -12.5142
   -12.4369 -12.4369 -12.4046 -12.4043  -5.4398  -5.4358  -5.0957  -5.0825
    -5.0712  -5.0571  -4.9593  -4.9582  -4.9330  -4.9287  -4.9123  -4.9097
    -4.9041  -4.8984  -4.5924  -4.5665  -4.5438  -4.5433  -4.5388  -4.5363
    -4.5089  -4.5071  -4.4997  -4.4804  -4.4691  -4.4465  -4.3835  -4.3537
    -4.0139  -3.9853  -3.9229  -3.9066  -3.8486  -3.8469  -3.7954  -3.7917
    -3.7863  -3.7812  -3.7726  -3.7703  -3.7337  -3.7302  -3.6199  -3.5388
    -3.3156  -3.2733  -3.2535  -3.2522  -3.1431  -3.1161  -3.1124  -3.1001
    -3.0845  -3.0580  -3.0182  -3.0005  -2.9678  -2.9380  -2.9156  -2.8919
    -2.8374  -2.8335  -2.7748  -2.7506  -2.7054  -2.6786  -2.6083  -2.5845
    -2.5825  -2.5644  -2.5507  -2.5172  -2.4449  -2.4140  -2.4010  -2.3707
    -2.1358  -2.1029  -2.0445  -2.0425  -2.0140  -2.0094  -2.0052  -1.9835
    -1.9671  -1.9538  -1.9038  -1.8899  -1.8731  -1.8651  -1.8600  -1.8496
    -1.8093  -1.7550  -1.7084  -1.6781  -1.6765  -1.6684  -1.4144  -1.4128
    -1.3254  -1.3228  -1.2965  -1.2927  -1.2831  -1.2417  -1.2157  -1.1447
    -0.6581  -0.6437  -0.6277  -0.6084  -0.5368  -0.5287  -0.5181  -0.5070
    -0.3417  -0.3409  -0.2121  -0.2029  -0.1856  -0.1700  -0.1194  -0.1189
    -0.0867  -0.0841   1.7090   1.7201   1.7344   1.7453   1.8771   1.8786
     1.8825   1.8940   1.9903   1.9992   2.0632   2.0753   2.0856   2.0896
     2.1423   2.1503   2.1547   2.1605   2.1715   2.1843   2.2134   2.2158
     2.2292   2.2349   2.2949   2.3158   2.3184   2.3327   2.3392   2.3820
     2.4260   2.4615   2.4660   2.4875   2.5044   2.5302   2.5609   2.5617

          k = 0.2454 0.5250 0.0000 ( 24816 PWs)   bands (ev):

   -55.5272 -55.5272 -55.5202 -55.5202 -55.5189 -55.5189 -55.4683 -55.4683
   -55.4608 -55.4608 -55.4589 -55.4589 -55.4516 -55.4516 -55.4471 -55.4471
   -55.4453 -55.4453 -33.0130 -33.0116 -33.0062 -33.0057 -32.9928 -32.9926
   -32.9617 -32.9604 -32.9533 -32.9525 -32.9433 -32.9427 -32.9305 -32.9293
   -32.9037 -32.9033 -32.8905 -32.8903 -30.9900 -30.9894 -30.9815 -30.9768
   -30.9580 -30.9559 -30.9453 -30.9403 -30.9323 -30.9281 -30.9190 -30.9159
   -30.9051 -30.9035 -30.8828 -30.8799 -30.8725 -30.8721 -30.8655 -30.8646
   -30.8492 -30.8484 -30.8375 -30.8365 -30.8265 -30.8238 -30.8127 -30.8126
   -30.8114 -30.8111 -30.8022 -30.8018 -30.7765 -30.7751 -30.7627 -30.7623
   -13.7691 -13.7685 -13.7447 -13.7441 -13.3457 -13.3367 -13.2238 -13.2118
   -13.0116 -13.0115 -12.9405 -12.9404 -12.7863 -12.7858 -12.7649 -12.7553
   -12.7406 -12.7330 -12.7258 -12.7183 -12.7135 -12.7126 -12.7105 -12.7101
   -12.7013 -12.6922 -12.5490 -12.5482 -12.5378 -12.5371 -12.5135 -12.5133
   -12.4368 -12.4367 -12.4049 -12.4047  -5.4417  -5.4387  -5.0799  -5.0648
    -5.0576  -5.0400  -4.9627  -4.9610  -4.9490  -4.9412  -4.9269  -4.9226
    -4.9066  -4.9044  -4.5844  -4.5589  -4.5452  -4.5346  -4.5337  -4.5292
    -4.5144  -4.4995  -4.4926  -4.4849  -4.4653  -4.4414  -4.3973  -4.3683
    -4.0125  -3.9849  -3.9436  -3.9253  -3.8482  -3.8469  -3.7948  -3.7918
    -3.7852  -3.7814  -3.7717  -3.7698  -3.7338  -3.7310  -3.5843  -3.5085
    -3.3455  -3.2995  -3.2509  -3.2499  -3.1378  -3.1135  -3.1088  -3.1029
    -3.0784  -3.0579  -3.0149  -2.9970  -2.9653  -2.9349  -2.9132  -2.8939
    -2.8409  -2.8395  -2.7800  -2.7670  -2.7041  -2.6849  -2.5957  -2.5815
    -2.5814  -2.5530  -2.5393  -2.5128  -2.4596  -2.4340  -2.4193  -2.3890
    -2.1241  -2.0997  -2.0409  -2.0377  -2.0128  -2.0095  -1.9979  -1.9840
    -1.9659  -1.9554  -1.8949  -1.8882  -1.8717  -1.8693  -1.8578  -1.8474
    -1.7954  -1.7541  -1.7067  -1.6771  -1.6771  -1.6747  -1.4148  -1.4081
    -1.3261  -1.3084  -1.3026  -1.2811  -1.2800  -1.2511  -1.2115  -1.1559
    -0.6583  -0.6438  -0.6302  -0.6124  -0.5394  -0.5290  -0.5209  -0.5088
    -0.3428  -0.3424  -0.2090  -0.2022  -0.1833  -0.1714  -0.1183  -0.1179
    -0.0852  -0.0833   1.7078   1.7166   1.7343   1.7420   1.8783   1.8793
     1.8837   1.8925   1.9923   1.9990   2.0685   2.0787   2.0868   2.0893
     2.1433   2.1487   2.1574   2.1616   2.1750   2.1843   2.2157   2.2191
     2.2280   2.2348   2.2984   2.3145   2.3265   2.3313   2.3392   2.3904
     2.4122   2.4648   2.4656   2.4770   2.5121   2.5311   2.5583   2.5584

          k = 0.2598 0.5167 0.0000 ( 24830 PWs)   bands (ev):

   -55.5272 -55.5272 -55.5205 -55.5205 -55.5194 -55.5194 -55.4686 -55.4686
   -55.4610 -55.4610 -55.4592 -55.4592 -55.4520 -55.4520 -55.4474 -55.4474
   -55.4456 -55.4456 -33.0136 -33.0123 -33.0070 -33.0063 -32.9930 -32.9929
   -32.9620 -32.9609 -32.9537 -32.9532 -32.9439 -32.9432 -32.9309 -32.9300
   -32.9040 -32.9037 -32.8907 -32.8905 -30.9903 -30.9901 -30.9818 -30.9780
   -30.9584 -30.9566 -30.9452 -30.9416 -30.9322 -30.9291 -30.9189 -30.9168
   -30.9052 -30.9041 -30.8826 -30.8807 -30.8726 -30.8725 -30.8659 -30.8653
   -30.8492 -30.8486 -30.8374 -30.8369 -30.8262 -30.8244 -30.8132 -30.8129
   -30.8116 -30.8115 -30.8028 -30.8023 -30.7766 -30.7755 -30.7628 -30.7624
   -13.7701 -13.7697 -13.7457 -13.7453 -13.3255 -13.3160 -13.2440 -13.2326
   -13.0120 -13.0119 -12.9410 -12.9409 -12.7807 -12.7803 -12.7580 -12.7484
   -12.7355 -12.7329 -12.7239 -12.7219 -12.7166 -12.7164 -12.7147 -12.7125
   -12.7064 -12.6977 -12.5478 -12.5471 -12.5385 -12.5380 -12.5128 -12.5126
   -12.4367 -12.4366 -12.4052 -12.4050  -5.4432  -5.4412  -5.0654  -5.0476
    -5.0470  -5.0243  -4.9692  -4.9637  -4.9617  -4.9503  -4.9430  -4.9357
    -4.9082  -4.9071  -4.5762  -4.5516  -4.5485  -4.5285  -4.5280  -4.5238
    -4.5228  -4.4944  -4.4922  -4.4870  -4.4572  -4.4323  -4.4108  -4.3827
    -4.0084  -3.9819  -3.9623  -3.9420  -3.8487  -3.8478  -3.7943  -3.7921
    -3.7843  -3.7818  -3.7710  -3.7697  -3.7337  -3.7318  -3.5494  -3.4838
    -3.3717  -3.3262  -3.2488  -3.2481  -3.1326  -3.1140  -3.1063  -3.1044
    -3.0730  -3.0592  -3.0114  -2.9973  -2.9589  -2.9339  -2.9106  -2.8966
    -2.8467  -2.8463  -2.7833  -2.7775  -2.7021  -2.6896  -2.5873  -2.5813
    -2.5736  -2.5403  -2.5279  -2.5160  -2.4663  -2.4521  -2.4344  -2.4064
    -2.1146  -2.0987  -2.0379  -2.0349  -2.0118  -2.0098  -1.9922  -1.9843
    -1.9647  -1.9574  -1.8912  -1.8825  -1.8752  -1.8706  -1.8549  -1.8462
    -1.7833  -1.7559  -1.7036  -1.6811  -1.6773  -1.6763  -1.4137  -1.4059
    -1.3265  -1.3160  -1.2885  -1.2792  -1.2720  -1.2593  -1.2051  -1.1668
    -0.6596  -0.6475  -0.6311  -0.6172  -0.5414  -0.5337  -0.5197  -0.5110
    -0.3445  -0.3442  -0.2066  -0.2021  -0.1814  -0.1734  -0.1173  -0.1171
    -0.0839  -0.0827   1.7069   1.7127   1.7336   1.7388   1.8792   1.8795
     1.8844   1.8906   1.9936   1.9980   2.0733   2.0815   2.0871   2.0878
     2.1436   2.1467   2.1596   2.1622   2.1782   2.1840   2.2170   2.2240
     2.2262   2.2345   2.3018   2.3126   2.3299   2.3301   2.3444   2.3909
     2.4079   2.4546   2.4683   2.4740   2.5184   2.5310   2.5527   2.5539

          k = 0.2742 0.5083 0.0000 ( 24822 PWs)   bands (ev):

   -55.5273 -55.5273 -55.5201 -55.5201 -55.5193 -55.5193 -55.4685 -55.4685
   -55.4611 -55.4611 -55.4587 -55.4587 -55.4519 -55.4519 -55.4474 -55.4474
   -55.4452 -55.4452 -33.0126 -33.0122 -33.0065 -33.0063 -32.9927 -32.9926
   -32.9612 -32.9610 -32.9530 -32.9529 -32.9436 -32.9435 -32.9302 -32.9299
   -32.9039 -32.9038 -32.8905 -32.8905 -30.9899 -30.9897 -30.9801 -30.9786
   -30.9573 -30.9567 -30.9438 -30.9422 -30.9304 -30.9294 -30.9183 -30.9171
   -30.9048 -30.9041 -30.8821 -30.8814 -30.8727 -30.8724 -30.8656 -30.8652
   -30.8493 -30.8491 -30.8370 -30.8368 -30.8256 -30.8251 -30.8130 -30.8129
   -30.8115 -30.8114 -30.8024 -30.8023 -30.7760 -30.7756 -30.7623 -30.7622
   -13.7707 -13.7705 -13.7463 -13.7461 -13.3053 -13.2955 -13.2641 -13.2533
   -13.0122 -13.0122 -12.9413 -12.9413 -12.7768 -12.7766 -12.7515 -12.7418
   -12.7394 -12.7314 -12.7241 -12.7208 -12.7202 -12.7174 -12.7166 -12.7120
   -12.7109 -12.7031 -12.5468 -12.5465 -12.5389 -12.5386 -12.5123 -12.5122
   -12.4366 -12.4365 -12.4052 -12.4052  -5.4439  -5.4429  -5.0524  -5.0414
    -5.0304  -5.0126  -4.9790  -4.9679  -4.9663  -4.9574  -4.9540  -4.9465
    -4.9092  -4.9087  -4.5677  -4.5534  -4.5445  -4.5310  -4.5230  -4.5224
    -4.5201  -4.5041  -4.4870  -4.4842  -4.4468  -4.4236  -4.4211  -4.3962
    -4.0013  -3.9782  -3.9760  -3.9560  -3.8486  -3.8482  -3.7934  -3.7924
    -3.7832  -3.7820  -3.7702  -3.7696  -3.7333  -3.7324  -3.5161  -3.4737
    -3.3844  -3.3521  -3.2473  -3.2470  -3.1272  -3.1174  -3.1047  -3.1041
    -3.0681  -3.0612  -3.0073  -2.9997  -2.9502  -2.9358  -2.9067  -2.8993
    -2.8518  -2.8514  -2.7847  -2.7825  -2.6999  -2.6937  -2.5842  -2.5820
    -2.5596  -2.5316  -2.5237  -2.5190  -2.4681  -2.4659  -2.4409  -2.4219
    -2.1071  -2.0991  -2.0355  -2.0337  -2.0107  -2.0099  -1.9883  -1.9846
    -1.9629  -1.9592  -1.8881  -1.8799  -1.8770  -1.8714  -1.8513  -1.8463
    -1.7732  -1.7597  -1.6988  -1.6872  -1.6768  -1.6760  -1.4112  -1.4060
    -1.3262  -1.3216  -1.2784  -1.2771  -1.2682  -1.2656  -1.1969  -1.1774
    -0.6583  -0.6517  -0.6287  -0.6217  -0.5417  -0.5381  -0.5173  -0.5128
    -0.3452  -0.3451  -0.2050  -0.2027  -0.1794  -0.1752  -0.1169  -0.1169
    -0.0837  -0.0831   1.7073   1.7097   1.7340   1.7371   1.8798   1.8798
     1.8858   1.8891   1.9946   1.9967   2.0782   2.0839   2.0854   2.0868
     2.1444   2.1459   2.1613   2.1627   2.1807   2.1834   2.2192   2.2242
     2.2282   2.2336   2.3052   2.3106   2.3304   2.3310   2.3555   2.3800
     2.4180   2.4421   2.4710   2.4739   2.5245   2.5310   2.5503   2.5509

          k = 0.2887 0.5000 0.0000 ( 24844 PWs)   bands (ev):

   -55.5279 -55.5279 -55.5203 -55.5203 -55.5198 -55.5198 -55.4690 -55.4690
   -55.4615 -55.4615 -55.4593 -55.4593 -55.4523 -55.4523 -55.4477 -55.4477
   -55.4457 -55.4457 -33.0128 -33.0128 -33.0070 -33.0070 -32.9934 -32.9934
   -32.9618 -32.9618 -32.9535 -32.9535 -32.9444 -32.9444 -32.9311 -32.9311
   -32.9046 -32.9046 -32.8913 -32.8913 -30.9900 -30.9900 -30.9798 -30.9798
   -30.9574 -30.9574 -30.9435 -30.9435 -30.9304 -30.9304 -30.9183 -30.9183
   -30.9053 -30.9053 -30.8825 -30.8825 -30.8731 -30.8731 -30.8660 -30.8660
   -30.8496 -30.8496 -30.8374 -30.8374 -30.8263 -30.8263 -30.8136 -30.8136
   -30.8120 -30.8120 -30.8031 -30.8031 -30.7764 -30.7764 -30.7634 -30.7634
   -13.7709 -13.7709 -13.7465 -13.7465 -13.2858 -13.2858 -13.2734 -13.2734
   -13.0123 -13.0123 -12.9414 -12.9414 -12.7754 -12.7754 -12.7452 -12.7452
   -12.7358 -12.7358 -12.7219 -12.7219 -12.7202 -12.7202 -12.7142 -12.7142
   -12.7085 -12.7085 -12.5464 -12.5464 -12.5390 -12.5390 -12.5121 -12.5121
   -12.4365 -12.4365 -12.4053 -12.4053  -5.4437  -5.4437  -5.0437  -5.0437
    -5.0161  -5.0161  -4.9767  -4.9767  -4.9652  -4.9652  -4.9529  -4.9529
    -4.9093  -4.9093  -4.5602  -4.5602  -4.5380  -4.5380  -4.5209  -4.5209
    -4.5135  -4.5135  -4.4843  -4.4843  -4.4359  -4.4359  -4.4093  -4.4093
    -3.9914  -3.9914  -3.9675  -3.9675  -3.8485  -3.8485  -3.7929  -3.7929
    -3.7826  -3.7826  -3.7699  -3.7699  -3.7329  -3.7329  -3.4882  -3.4882
    -3.3750  -3.3750  -3.2472  -3.2472  -3.1222  -3.1222  -3.1042  -3.1042
    -3.0643  -3.0643  -3.0035  -3.0035  -2.9419  -2.9419  -2.9031  -2.9031
    -2.8539  -2.8539  -2.7849  -2.7849  -2.6972  -2.6972  -2.5829  -2.5829
    -2.5442  -2.5442  -2.5178  -2.5178  -2.4709  -2.4709  -2.4348  -2.4348
    -2.1023  -2.1023  -2.0340  -2.0340  -2.0105  -2.0105  -1.9860  -1.9860
    -1.9614  -1.9614  -1.8846  -1.8846  -1.8738  -1.8738  -1.8485  -1.8485
    -1.7659  -1.7659  -1.6935  -1.6935  -1.6766  -1.6766  -1.4084  -1.4084
    -1.3249  -1.3249  -1.2752  -1.2752  -1.2680  -1.2680  -1.1876  -1.1876
    -0.6557  -0.6557  -0.6255  -0.6255  -0.5406  -0.5406  -0.5152  -0.5152
    -0.3456  -0.3456  -0.2039  -0.2039  -0.1775  -0.1775  -0.1175  -0.1175
    -0.0844  -0.0844   1.7081   1.7081   1.7352   1.7352   1.8796   1.8796
     1.8870   1.8870   1.9954   1.9954   2.0816   2.0816   2.0855   2.0855
     2.1448   2.1448   2.1619   2.1619   2.1820   2.1820   2.2211   2.2211
     2.2308   2.2308   2.3076   2.3076   2.3296   2.3296   2.3661   2.3661
     2.4283   2.4283   2.4721   2.4721   2.5286   2.5286   2.5487   2.5487

     Writing output data file ./outdir/nbse2.save/
 
     init_run     :      2.84s CPU      3.81s WALL (       1 calls)
     electrons    :   7063.98s CPU   8023.07s WALL (       1 calls)

     Called by init_run:
     wfcinit      :      0.00s CPU      0.00s WALL (       1 calls)
     potinit      :      0.49s CPU      0.61s WALL (       1 calls)
     hinit0       :      0.59s CPU      0.73s WALL (       1 calls)

     Called by electrons:
     c_bands      :   7063.98s CPU   8023.00s WALL (       1 calls)
     v_of_rho     :      0.11s CPU      0.11s WALL (       1 calls)
     newd         :      0.62s CPU      1.13s WALL (       1 calls)
     PAW_pot      :      0.27s CPU      0.36s WALL (       1 calls)

     Called by c_bands:
     init_us_2    :      0.82s CPU      1.12s WALL (      61 calls)
     cegterg      :   6847.17s CPU   7766.77s WALL (     335 calls)

     Called by *egterg:
     cdiaghg      :    982.97s CPU    997.51s WALL (    6345 calls)
     h_psi        :   3800.96s CPU   4647.68s WALL (    6680 calls)
     s_psi        :    443.95s CPU    452.00s WALL (    6680 calls)
     g_psi        :      8.68s CPU      8.94s WALL (    6284 calls)

     Called by h_psi:
     h_psi:calbec :    393.16s CPU    439.02s WALL (    6680 calls)
     vloc_psi     :   3033.76s CPU   3827.41s WALL (    6680 calls)
     add_vuspsi   :    343.38s CPU    350.31s WALL (    6680 calls)

     General routines
     calbec       :    393.07s CPU    438.96s WALL (    6680 calls)
     fft          :      0.13s CPU      0.21s WALL (      19 calls)
     ffts         :      0.02s CPU      0.01s WALL (       4 calls)
     fftw         :   1812.87s CPU   2527.88s WALL ( 2341984 calls)
     interpolate  :      0.03s CPU      0.03s WALL (       4 calls)
     davcio       :      0.10s CPU      1.88s WALL (     122 calls)
 
     Parallel routines
     fft_scatt_xy :    148.15s CPU    156.28s WALL ( 2342007 calls)
     fft_scatt_yz :   1046.17s CPU   1725.04s WALL ( 2342007 calls)
 
     PWSCF        :      1h58m CPU      2h14m WALL

 
   This run was terminated on:   2:29:10   6Sep2020            

=------------------------------------------------------------------------------=
   JOB DONE.
=------------------------------------------------------------------------------=
