
     Program BANDS v.6.6 starts on  6Sep2020 at  3:17:32 

     This program is part of the open-source Quantum ESPRESSO suite
     for quantum simulation of materials; please cite
         "P. Giannozzi et al., J. Phys.:Condens. Matter 21 395502 (2009);
         "P. Giannozzi et al., J. Phys.:Condens. Matter 29 465901 (2017);
          URL http://www.quantum-espresso.org", 
     in publications or presentations arising from this work. More details at
     http://www.quantum-espresso.org/quote

     Parallel version (MPI), running on    44 processors

     MPI processes distributed on     1 nodes
     R & G space division:  proc/nbgrp/npool/nimage =      44
     Fft bands division:     nmany     =       1

     Reading xml data from directory:

     ./outdir/nbse2.save/
     file Se.rel-pbe-n-kjpaw_psl.0.2.UPF: wavefunction(s)  4S 4P renormalized
     file Nb.rel-pbe-spn-kjpaw_psl.1.0.0.UPF: wavefunction(s)  4S 4P 4P 4D renormalized

     IMPORTANT: XC functional enforced from input :
     Exchange-correlation= PBE
                           (   1   4   3   4   0   0   0)
     Any further DFT definition will be discarded
     Please, verify this is what you really want

 
     Parallelization info
     --------------------
     sticks:   dense  smooth     PW     G-vecs:    dense   smooth      PW
     Min         140      61     16                15740     4517     636
     Max         141      63     17                15749     4520     643
     Sum        6181    2713    745               692723   198795   28173
 

     negative rho (up, down):  2.199E-02 0.000E+00
     Reading collected, re-writing distributed wavefunctions
     high-symmetry point:  0.2887 0.5000 0.0000   x coordinate   0.0000
     high-symmetry point:  0.0000 0.0000 0.0000   x coordinate   0.5774
     high-symmetry point:  0.0000 0.6667 0.0000   x coordinate   1.2440
     high-symmetry point:  0.2887 0.5000 0.0000   x coordinate   1.5774

     Plottable bands (eV) written to file nbse2.bands.dat.gnu
     Bands written to file nbse2.bands.dat

 **************************************************************************

                    xk=(   0.28868,   0.50000,   0.00000  )

     double point group C_2v (mm2) 
     there are  5 classes and  1 irreducible representations
     the character table:

       E     -E     C2    s_v   s_v'
                   -C2   -s_v  -s_v'
G_5    2.00 -2.00  0.00  0.00  0.00

     the symmetry operations in each class and the name of the first element:

     E             1
                                                                 
     -E           -1
                                                                 
      C2  -C2      2   -2
                                                                 
      s_v -s_v     3   -3
                                                                 
      s_v'-s_v'    4   -4
                                                                 

     Band symmetry, C_2v (mm2)  double point group:

     e(  1 -  2) =    -55.52791  eV     2   --> G_5  D_5       
     e(  3 -  4) =    -55.52031  eV     2   --> G_5  D_5       
     e(  5 -  6) =    -55.51983  eV     2   --> G_5  D_5       
     e(  7 -  8) =    -55.46896  eV     2   --> G_5  D_5       
     e(  9 - 10) =    -55.46146  eV     2   --> G_5  D_5       
     e( 11 - 12) =    -55.45932  eV     2   --> G_5  D_5       
     e( 13 - 14) =    -55.45231  eV     2   --> G_5  D_5       
     e( 15 - 16) =    -55.44770  eV     2   --> G_5  D_5       
     e( 17 - 18) =    -55.44570  eV     2   --> G_5  D_5       
     e( 19 - 20) =    -33.01275  eV     2   --> G_5  D_5       
     e( 21 - 22) =    -33.00699  eV     2   --> G_5  D_5       
     e( 23 - 24) =    -32.99345  eV     2   --> G_5  D_5       
     e( 25 - 26) =    -32.96182  eV     2   --> G_5  D_5       
     e( 27 - 28) =    -32.95348  eV     2   --> G_5  D_5       
     e( 29 - 30) =    -32.94437  eV     2   --> G_5  D_5       
     e( 31 - 32) =    -32.93105  eV     2   --> G_5  D_5       
     e( 33 - 34) =    -32.90460  eV     2   --> G_5  D_5       
     e( 35 - 36) =    -32.89128  eV     2   --> G_5  D_5       
     e( 37 - 38) =    -30.98998  eV     2   --> G_5  D_5       
     e( 39 - 40) =    -30.97983  eV     2   --> G_5  D_5       
     e( 41 - 42) =    -30.95740  eV     2   --> G_5  D_5       
     e( 43 - 44) =    -30.94346  eV     2   --> G_5  D_5       
     e( 45 - 46) =    -30.93041  eV     2   --> G_5  D_5       
     e( 47 - 48) =    -30.91827  eV     2   --> G_5  D_5       
     e( 49 - 50) =    -30.90528  eV     2   --> G_5  D_5       
     e( 51 - 52) =    -30.88252  eV     2   --> G_5  D_5       
     e( 53 - 54) =    -30.87307  eV     2   --> G_5  D_5       
     e( 55 - 56) =    -30.86601  eV     2   --> G_5  D_5       
     e( 57 - 58) =    -30.84959  eV     2   --> G_5  D_5       
     e( 59 - 60) =    -30.83738  eV     2   --> G_5  D_5       
     e( 61 - 62) =    -30.82634  eV     2   --> G_5  D_5       
     e( 63 - 64) =    -30.81359  eV     2   --> G_5  D_5       
     e( 65 - 66) =    -30.81204  eV     2   --> G_5  D_5       
     e( 67 - 68) =    -30.80310  eV     2   --> G_5  D_5       
     e( 69 - 70) =    -30.77645  eV     2   --> G_5  D_5       
     e( 71 - 72) =    -30.76342  eV     2   --> G_5  D_5       
     e( 73 - 74) =    -13.77089  eV     2   --> G_5  D_5       
     e( 75 - 76) =    -13.74646  eV     2   --> G_5  D_5       
     e( 77 - 78) =    -13.28585  eV     2   --> G_5  D_5       
     e( 79 - 80) =    -13.27340  eV     2   --> G_5  D_5       
     e( 81 - 82) =    -13.01232  eV     2   --> G_5  D_5       
     e( 83 - 84) =    -12.94142  eV     2   --> G_5  D_5       
     e( 85 - 86) =    -12.77536  eV     2   --> G_5  D_5       
     e( 87 - 88) =    -12.74523  eV     2   --> G_5  D_5       
     e( 89 - 90) =    -12.73579  eV     2   --> G_5  D_5       
     e( 91 - 92) =    -12.72185  eV     2   --> G_5  D_5       
     e( 93 - 94) =    -12.72020  eV     2   --> G_5  D_5       
     e( 95 - 96) =    -12.71418  eV     2   --> G_5  D_5       
     e( 97 - 98) =    -12.70853  eV     2   --> G_5  D_5       
     e( 99 -100) =    -12.54636  eV     2   --> G_5  D_5       
     e(101 -102) =    -12.53897  eV     2   --> G_5  D_5       
     e(103 -104) =    -12.51212  eV     2   --> G_5  D_5       
     e(105 -106) =    -12.43654  eV     2   --> G_5  D_5       
     e(107 -108) =    -12.40528  eV     2   --> G_5  D_5       
     e(109 -110) =     -5.44373  eV     2   --> G_5  D_5       
     e(111 -112) =     -5.04374  eV     2   --> G_5  D_5       
     e(113 -114) =     -5.01611  eV     2   --> G_5  D_5       
     e(115 -116) =     -4.97667  eV     2   --> G_5  D_5       
     e(117 -118) =     -4.96516  eV     2   --> G_5  D_5       
     e(119 -120) =     -4.95289  eV     2   --> G_5  D_5       
     e(121 -122) =     -4.90934  eV     2   --> G_5  D_5       
     e(123 -124) =     -4.56018  eV     2   --> G_5  D_5       
     e(125 -126) =     -4.53799  eV     2   --> G_5  D_5       
     e(127 -128) =     -4.52090  eV     2   --> G_5  D_5       
     e(129 -130) =     -4.51346  eV     2   --> G_5  D_5       
     e(131 -132) =     -4.48428  eV     2   --> G_5  D_5       
     e(133 -134) =     -4.43587  eV     2   --> G_5  D_5       
     e(135 -136) =     -4.40931  eV     2   --> G_5  D_5       
     e(137 -138) =     -3.99136  eV     2   --> G_5  D_5       
     e(139 -140) =     -3.96749  eV     2   --> G_5  D_5       
     e(141 -142) =     -3.84850  eV     2   --> G_5  D_5       
     e(143 -144) =     -3.79291  eV     2   --> G_5  D_5       
     e(145 -146) =     -3.78256  eV     2   --> G_5  D_5       
     e(147 -148) =     -3.76987  eV     2   --> G_5  D_5       
     e(149 -150) =     -3.73292  eV     2   --> G_5  D_5       
     e(151 -152) =     -3.48820  eV     2   --> G_5  D_5       
     e(153 -154) =     -3.37497  eV     2   --> G_5  D_5       
     e(155 -156) =     -3.24724  eV     2   --> G_5  D_5       
     e(157 -158) =     -3.12217  eV     2   --> G_5  D_5       
     e(159 -160) =     -3.10417  eV     2   --> G_5  D_5       
     e(161 -162) =     -3.06426  eV     2   --> G_5  D_5       
     e(163 -164) =     -3.00345  eV     2   --> G_5  D_5       
     e(165 -166) =     -2.94192  eV     2   --> G_5  D_5       
     e(167 -168) =     -2.90309  eV     2   --> G_5  D_5       
     e(169 -170) =     -2.85395  eV     2   --> G_5  D_5       
     e(171 -172) =     -2.78487  eV     2   --> G_5  D_5       
     e(173 -174) =     -2.69716  eV     2   --> G_5  D_5       
     e(175 -176) =     -2.58287  eV     2   --> G_5  D_5       
     e(177 -178) =     -2.54417  eV     2   --> G_5  D_5       
     e(179 -180) =     -2.51776  eV     2   --> G_5  D_5       
     e(181 -182) =     -2.47091  eV     2   --> G_5  D_5       
     e(183 -184) =     -2.43485  eV     2   --> G_5  D_5       
     e(185 -186) =     -2.10234  eV     2   --> G_5  D_5       
     e(187 -188) =     -2.03402  eV     2   --> G_5  D_5       
     e(189 -190) =     -2.01053  eV     2   --> G_5  D_5       
     e(191 -192) =     -1.98599  eV     2   --> G_5  D_5       
     e(193 -194) =     -1.96140  eV     2   --> G_5  D_5       
     e(195 -196) =     -1.88458  eV     2   --> G_5  D_5       
     e(197 -198) =     -1.87379  eV     2   --> G_5  D_5       
     e(199 -200) =     -1.84855  eV     2   --> G_5  D_5       
     e(201 -202) =     -1.76588  eV     2   --> G_5  D_5       
     e(203 -204) =     -1.69349  eV     2   --> G_5  D_5       
     e(205 -206) =     -1.67659  eV     2   --> G_5  D_5       
     e(207 -208) =     -1.40836  eV     2   --> G_5  D_5       
     e(209 -210) =     -1.32492  eV     2   --> G_5  D_5       
     e(211 -212) =     -1.27519  eV     2   --> G_5  D_5       
     e(213 -214) =     -1.26803  eV     2   --> G_5  D_5       
     e(215 -216) =     -1.18763  eV     2   --> G_5  D_5       
     e(217 -218) =     -0.65572  eV     2   --> G_5  D_5       
     e(219 -220) =     -0.62551  eV     2   --> G_5  D_5       
     e(221 -222) =     -0.54061  eV     2   --> G_5  D_5       
     e(223 -224) =     -0.51524  eV     2   --> G_5  D_5       
     e(225 -226) =     -0.34562  eV     2   --> G_5  D_5       
     e(227 -228) =     -0.20390  eV     2   --> G_5  D_5       
     e(229 -230) =     -0.17747  eV     2   --> G_5  D_5       
     e(231 -232) =     -0.11749  eV     2   --> G_5  D_5       
     e(233 -234) =     -0.08436  eV     2   --> G_5  D_5       
     e(235 -236) =      1.70811  eV     2   --> G_5  D_5       
     e(237 -238) =      1.73520  eV     2   --> G_5  D_5       
     e(239 -240) =      1.87962  eV     2   --> G_5  D_5       
     e(241 -242) =      1.88699  eV     2   --> G_5  D_5       
     e(243 -244) =      1.99542  eV     2   --> G_5  D_5       
     e(245 -246) =      2.08155  eV     2   --> G_5  D_5       
     e(247 -248) =      2.08552  eV     2   --> G_5  D_5       
     e(249 -250) =      2.14485  eV     2   --> G_5  D_5       
     e(251 -252) =      2.16189  eV     2   --> G_5  D_5       
     e(253 -254) =      2.18200  eV     2   --> G_5  D_5       
     e(255 -256) =      2.22114  eV     2   --> G_5  D_5       
     e(257 -258) =      2.23079  eV     2   --> G_5  D_5       
     e(259 -260) =      2.30755  eV     2   --> G_5  D_5       
     e(261 -262) =      2.32958  eV     2   --> G_5  D_5       
     e(263 -264) =      2.36607  eV     2   --> G_5  D_5       
     e(265 -266) =      2.42833  eV     2   --> G_5  D_5       
     e(267 -268) =      2.47211  eV     2   --> G_5  D_5       
     e(269 -270) =      2.52857  eV     2   --> G_5  D_5       
     e(271 -272) =      2.54869  eV     2   --> G_5  D_5       

 **************************************************************************

 **************************************************************************

                    xk=(   0.27424,   0.47500,   0.00000  )

     Band symmetry, C_2v (mm2)  double point group:

     e(  1 -  2) =    -55.52736  eV     2   --> G_5  D_5       
     e(  3 -  4) =    -55.52077  eV     2   --> G_5  D_5       
     e(  5 -  6) =    -55.51993  eV     2   --> G_5  D_5       
     e(  7 -  8) =    -55.46894  eV     2   --> G_5  D_5       
     e(  9 - 10) =    -55.46143  eV     2   --> G_5  D_5       
     e( 11 - 12) =    -55.45936  eV     2   --> G_5  D_5       
     e( 13 - 14) =    -55.45253  eV     2   --> G_5  D_5       
     e( 15 - 16) =    -55.44770  eV     2   --> G_5  D_5       
     e( 17 - 18) =    -55.44578  eV     2   --> G_5  D_5       
     e( 19 - 20) =    -33.01320  eV     2   --> G_5  D_5       
     e( 21 - 22) =    -33.00720  eV     2   --> G_5  D_5       
     e( 23 - 24) =    -32.99362  eV     2   --> G_5  D_5       
     e( 25 - 26) =    -32.96181  eV     2   --> G_5  D_5       
     e( 27 - 28) =    -32.95378  eV     2   --> G_5  D_5       
     e( 29 - 30) =    -32.94377  eV     2   --> G_5  D_5       
     e( 31 - 32) =    -32.93118  eV     2   --> G_5  D_5       
     e( 33 - 34) =    -32.90464  eV     2   --> G_5  D_5       
     e( 35 - 36) =    -32.89112  eV     2   --> G_5  D_5       
     e( 37 - 38) =    -30.99060  eV     2   --> G_5  D_5       
     e( 39 - 40) =    -30.97980  eV     2   --> G_5  D_5       
     e( 41 - 42) =    -30.95766  eV     2   --> G_5  D_5       
     e( 43 - 44) =    -30.94387  eV     2   --> G_5  D_5       
     e( 45 - 46) =    -30.93065  eV     2   --> G_5  D_5       
     e( 47 - 48) =    -30.91811  eV     2   --> G_5  D_5       
     e( 49 - 50) =    -30.90460  eV     2   --> G_5  D_5       
     e( 51 - 52) =    -30.88193  eV     2   --> G_5  D_5       
     e( 53 - 54) =    -30.87313  eV     2   --> G_5  D_5       
     e( 55 - 56) =    -30.86626  eV     2   --> G_5  D_5       
     e( 57 - 58) =    -30.84938  eV     2   --> G_5  D_5       
     e( 59 - 60) =    -30.83755  eV     2   --> G_5  D_5       
     e( 61 - 62) =    -30.82611  eV     2   --> G_5  D_5       
     e( 63 - 64) =    -30.81360  eV     2   --> G_5  D_5       
     e( 65 - 66) =    -30.81185  eV     2   --> G_5  D_5       
     e( 67 - 68) =    -30.80328  eV     2   --> G_5  D_5       
     e( 69 - 70) =    -30.77732  eV     2   --> G_5  D_5       
     e( 71 - 72) =    -30.76354  eV     2   --> G_5  D_5       
     e( 73 - 74) =    -13.78786  eV     2   --> G_5  D_5       
     e( 75 - 76) =    -13.72831  eV     2   --> G_5  D_5       
     e( 77 - 78) =    -13.28532  eV     2   --> G_5  D_5       
     e( 79 - 80) =    -13.27290  eV     2   --> G_5  D_5       
     e( 81 - 82) =    -13.01392  eV     2   --> G_5  D_5       
     e( 83 - 84) =    -12.93918  eV     2   --> G_5  D_5       
     e( 85 - 86) =    -12.77514  eV     2   --> G_5  D_5       
     e( 87 - 88) =    -12.75775  eV     2   --> G_5  D_5       
     e( 89 - 90) =    -12.73540  eV     2   --> G_5  D_5       
     e( 91 - 92) =    -12.72275  eV     2   --> G_5  D_5       
     e( 93 - 94) =    -12.72135  eV     2   --> G_5  D_5       
     e( 95 - 96) =    -12.71463  eV     2   --> G_5  D_5       
     e( 97 - 98) =    -12.69606  eV     2   --> G_5  D_5       
     e( 99 -100) =    -12.54748  eV     2   --> G_5  D_5       
     e(101 -102) =    -12.53978  eV     2   --> G_5  D_5       
     e(103 -104) =    -12.51181  eV     2   --> G_5  D_5       
     e(105 -106) =    -12.43592  eV     2   --> G_5  D_5       
     e(107 -108) =    -12.40518  eV     2   --> G_5  D_5       
     e(109 -110) =     -5.44228  eV     2   --> G_5  D_5       
     e(111 -112) =     -5.04529  eV     2   --> G_5  D_5       
     e(113 -114) =     -5.01725  eV     2   --> G_5  D_5       
     e(115 -116) =     -4.97938  eV     2   --> G_5  D_5       
     e(117 -118) =     -4.97238  eV     2   --> G_5  D_5       
     e(119 -120) =     -4.95033  eV     2   --> G_5  D_5       
     e(121 -122) =     -4.89324  eV     2   --> G_5  D_5       
     e(123 -124) =     -4.57210  eV     2   --> G_5  D_5       
     e(125 -126) =     -4.53937  eV     2   --> G_5  D_5       
     e(127 -128) =     -4.52190  eV     2   --> G_5  D_5       
     e(129 -130) =     -4.50032  eV     2   --> G_5  D_5       
     e(131 -132) =     -4.48529  eV     2   --> G_5  D_5       
     e(133 -134) =     -4.44897  eV     2   --> G_5  D_5       
     e(135 -136) =     -4.39441  eV     2   --> G_5  D_5       
     e(137 -138) =     -3.99183  eV     2   --> G_5  D_5       
     e(139 -140) =     -3.96808  eV     2   --> G_5  D_5       
     e(141 -142) =     -3.84904  eV     2   --> G_5  D_5       
     e(143 -144) =     -3.79546  eV     2   --> G_5  D_5       
     e(145 -146) =     -3.78603  eV     2   --> G_5  D_5       
     e(147 -148) =     -3.76632  eV     2   --> G_5  D_5       
     e(149 -150) =     -3.73140  eV     2   --> G_5  D_5       
     e(151 -152) =     -3.49032  eV     2   --> G_5  D_5       
     e(153 -154) =     -3.37849  eV     2   --> G_5  D_5       
     e(155 -156) =     -3.27570  eV     2   --> G_5  D_5       
     e(157 -158) =     -3.12216  eV     2   --> G_5  D_5       
     e(159 -160) =     -3.07943  eV     2   --> G_5  D_5       
     e(161 -162) =     -3.06133  eV     2   --> G_5  D_5       
     e(163 -164) =     -3.00237  eV     2   --> G_5  D_5       
     e(165 -166) =     -2.94067  eV     2   --> G_5  D_5       
     e(167 -168) =     -2.89970  eV     2   --> G_5  D_5       
     e(169 -170) =     -2.85266  eV     2   --> G_5  D_5       
     e(171 -172) =     -2.78468  eV     2   --> G_5  D_5       
     e(173 -174) =     -2.71292  eV     2   --> G_5  D_5       
     e(175 -176) =     -2.59860  eV     2   --> G_5  D_5       
     e(177 -178) =     -2.57004  eV     2   --> G_5  D_5       
     e(179 -180) =     -2.55351  eV     2   --> G_5  D_5       
     e(181 -182) =     -2.42703  eV     2   --> G_5  D_5       
     e(183 -184) =     -2.38462  eV     2   --> G_5  D_5       
     e(185 -186) =     -2.10231  eV     2   --> G_5  D_5       
     e(187 -188) =     -2.03454  eV     2   --> G_5  D_5       
     e(189 -190) =     -2.01231  eV     2   --> G_5  D_5       
     e(191 -192) =     -1.98357  eV     2   --> G_5  D_5       
     e(193 -194) =     -1.96393  eV     2   --> G_5  D_5       
     e(195 -196) =     -1.88105  eV     2   --> G_5  D_5       
     e(197 -198) =     -1.87835  eV     2   --> G_5  D_5       
     e(199 -200) =     -1.85274  eV     2   --> G_5  D_5       
     e(201 -202) =     -1.75895  eV     2   --> G_5  D_5       
     e(203 -204) =     -1.69230  eV     2   --> G_5  D_5       
     e(205 -206) =     -1.67372  eV     2   --> G_5  D_5       
     e(207 -208) =     -1.41133  eV     2   --> G_5  D_5       
     e(209 -210) =     -1.32678  eV     2   --> G_5  D_5       
     e(211 -212) =     -1.27490  eV     2   --> G_5  D_5       
     e(213 -214) =     -1.26827  eV     2   --> G_5  D_5       
     e(215 -216) =     -1.18831  eV     2   --> G_5  D_5       
     e(217 -218) =     -0.65702  eV     2   --> G_5  D_5       
     e(219 -220) =     -0.62752  eV     2   --> G_5  D_5       
     e(221 -222) =     -0.54376  eV     2   --> G_5  D_5       
     e(223 -224) =     -0.51541  eV     2   --> G_5  D_5       
     e(225 -226) =     -0.34951  eV     2   --> G_5  D_5       
     e(227 -228) =     -0.20416  eV     2   --> G_5  D_5       
     e(229 -230) =     -0.17574  eV     2   --> G_5  D_5       
     e(231 -232) =     -0.13339  eV     2   --> G_5  D_5       
     e(233 -234) =     -0.06606  eV     2   --> G_5  D_5       
     e(235 -236) =      1.70740  eV     2   --> G_5  D_5       
     e(237 -238) =      1.73438  eV     2   --> G_5  D_5       
     e(239 -240) =      1.87830  eV     2   --> G_5  D_5       
     e(241 -242) =      1.88510  eV     2   --> G_5  D_5       
     e(243 -244) =      1.99220  eV     2   --> G_5  D_5       
     e(245 -246) =      2.08053  eV     2   --> G_5  D_5       
     e(247 -248) =      2.08779  eV     2   --> G_5  D_5       
     e(249 -250) =      2.14319  eV     2   --> G_5  D_5       
     e(251 -252) =      2.16117  eV     2   --> G_5  D_5       
     e(253 -254) =      2.18243  eV     2   --> G_5  D_5       
     e(255 -256) =      2.22101  eV     2   --> G_5  D_5       
     e(257 -258) =      2.23388  eV     2   --> G_5  D_5       
     e(259 -260) =      2.30733  eV     2   --> G_5  D_5       
     e(261 -262) =      2.32952  eV     2   --> G_5  D_5       
     e(263 -264) =      2.36936  eV     2   --> G_5  D_5       
     e(265 -266) =      2.43139  eV     2   --> G_5  D_5       
     e(267 -268) =      2.47207  eV     2   --> G_5  D_5       
     e(269 -270) =      2.52336  eV     2   --> G_5  D_5       
     e(271 -272) =      2.54777  eV     2   --> G_5  D_5       

 **************************************************************************

 **************************************************************************

                    xk=(   0.25981,   0.45000,   0.00000  )

     Band symmetry, C_2v (mm2)  double point group:

     e(  1 -  2) =    -55.52675  eV     2   --> G_5  D_5       
     e(  3 -  4) =    -55.51997  eV     2   --> G_5  D_5       
     e(  5 -  6) =    -55.51957  eV     2   --> G_5  D_5       
     e(  7 -  8) =    -55.46832  eV     2   --> G_5  D_5       
     e(  9 - 10) =    -55.46046  eV     2   --> G_5  D_5       
     e( 11 - 12) =    -55.45922  eV     2   --> G_5  D_5       
     e( 13 - 14) =    -55.45207  eV     2   --> G_5  D_5       
     e( 15 - 16) =    -55.44681  eV     2   --> G_5  D_5       
     e( 17 - 18) =    -55.44544  eV     2   --> G_5  D_5       
     e( 19 - 20) =    -33.01185  eV     2   --> G_5  D_5       
     e( 21 - 22) =    -33.00625  eV     2   --> G_5  D_5       
     e( 23 - 24) =    -32.99294  eV     2   --> G_5  D_5       
     e( 25 - 26) =    -32.96085  eV     2   --> G_5  D_5       
     e( 27 - 28) =    -32.95255  eV     2   --> G_5  D_5       
     e( 29 - 30) =    -32.94282  eV     2   --> G_5  D_5       
     e( 31 - 32) =    -32.93137  eV     2   --> G_5  D_5       
     e( 33 - 34) =    -32.90459  eV     2   --> G_5  D_5       
     e( 35 - 36) =    -32.88907  eV     2   --> G_5  D_5       
     e( 37 - 38) =    -30.98914  eV     2   --> G_5  D_5       
     e( 39 - 40) =    -30.97928  eV     2   --> G_5  D_5       
     e( 41 - 42) =    -30.95676  eV     2   --> G_5  D_5       
     e( 43 - 44) =    -30.94282  eV     2   --> G_5  D_5       
     e( 45 - 46) =    -30.93008  eV     2   --> G_5  D_5       
     e( 47 - 48) =    -30.91769  eV     2   --> G_5  D_5       
     e( 49 - 50) =    -30.90456  eV     2   --> G_5  D_5       
     e( 51 - 52) =    -30.88162  eV     2   --> G_5  D_5       
     e( 53 - 54) =    -30.87247  eV     2   --> G_5  D_5       
     e( 55 - 56) =    -30.86573  eV     2   --> G_5  D_5       
     e( 57 - 58) =    -30.84855  eV     2   --> G_5  D_5       
     e( 59 - 60) =    -30.83668  eV     2   --> G_5  D_5       
     e( 61 - 62) =    -30.82518  eV     2   --> G_5  D_5       
     e( 63 - 64) =    -30.81279  eV     2   --> G_5  D_5       
     e( 65 - 66) =    -30.81097  eV     2   --> G_5  D_5       
     e( 67 - 68) =    -30.80293  eV     2   --> G_5  D_5       
     e( 69 - 70) =    -30.77744  eV     2   --> G_5  D_5       
     e( 71 - 72) =    -30.76082  eV     2   --> G_5  D_5       
     e( 73 - 74) =    -13.81210  eV     2   --> G_5  D_5       
     e( 75 - 76) =    -13.70091  eV     2   --> G_5  D_5       
     e( 77 - 78) =    -13.28385  eV     2   --> G_5  D_5       
     e( 79 - 80) =    -13.27150  eV     2   --> G_5  D_5       
     e( 81 - 82) =    -13.01858  eV     2   --> G_5  D_5       
     e( 83 - 84) =    -12.93334  eV     2   --> G_5  D_5       
     e( 85 - 86) =    -12.77568  eV     2   --> G_5  D_5       
     e( 87 - 88) =    -12.77367  eV     2   --> G_5  D_5       
     e( 89 - 90) =    -12.75289  eV     2   --> G_5  D_5       
     e( 91 - 92) =    -12.72112  eV     2   --> G_5  D_5       
     e( 93 - 94) =    -12.71978  eV     2   --> G_5  D_5       
     e( 95 - 96) =    -12.70547  eV     2   --> G_5  D_5       
     e( 97 - 98) =    -12.67937  eV     2   --> G_5  D_5       
     e( 99 -100) =    -12.55047  eV     2   --> G_5  D_5       
     e(101 -102) =    -12.54210  eV     2   --> G_5  D_5       
     e(103 -104) =    -12.51101  eV     2   --> G_5  D_5       
     e(105 -106) =    -12.43409  eV     2   --> G_5  D_5       
     e(107 -108) =    -12.40476  eV     2   --> G_5  D_5       
     e(109 -110) =     -5.43654  eV     2   --> G_5  D_5       
     e(111 -112) =     -5.04846  eV     2   --> G_5  D_5       
     e(113 -114) =     -5.02299  eV     2   --> G_5  D_5       
     e(115 -116) =     -4.99997  eV     2   --> G_5  D_5       
     e(117 -118) =     -4.96858  eV     2   --> G_5  D_5       
     e(119 -120) =     -4.93674  eV     2   --> G_5  D_5       
     e(121 -122) =     -4.86405  eV     2   --> G_5  D_5       
     e(123 -124) =     -4.59565  eV     2   --> G_5  D_5       
     e(125 -126) =     -4.53555  eV     2   --> G_5  D_5       
     e(127 -128) =     -4.52472  eV     2   --> G_5  D_5       
     e(129 -130) =     -4.49060  eV     2   --> G_5  D_5       
     e(131 -132) =     -4.48673  eV     2   --> G_5  D_5       
     e(133 -134) =     -4.45629  eV     2   --> G_5  D_5       
     e(135 -136) =     -4.37041  eV     2   --> G_5  D_5       
     e(137 -138) =     -3.99333  eV     2   --> G_5  D_5       
     e(139 -140) =     -3.96995  eV     2   --> G_5  D_5       
     e(141 -142) =     -3.84950  eV     2   --> G_5  D_5       
     e(143 -144) =     -3.80168  eV     2   --> G_5  D_5       
     e(145 -146) =     -3.79281  eV     2   --> G_5  D_5       
     e(147 -148) =     -3.75991  eV     2   --> G_5  D_5       
     e(149 -150) =     -3.72744  eV     2   --> G_5  D_5       
     e(151 -152) =     -3.49678  eV     2   --> G_5  D_5       
     e(153 -154) =     -3.38909  eV     2   --> G_5  D_5       
     e(155 -156) =     -3.33211  eV     2   --> G_5  D_5       
     e(157 -158) =     -3.12393  eV     2   --> G_5  D_5       
     e(159 -160) =     -3.05782  eV     2   --> G_5  D_5       
     e(161 -162) =     -3.02254  eV     2   --> G_5  D_5       
     e(163 -164) =     -2.99793  eV     2   --> G_5  D_5       
     e(165 -166) =     -2.93804  eV     2   --> G_5  D_5       
     e(167 -168) =     -2.89031  eV     2   --> G_5  D_5       
     e(169 -170) =     -2.84888  eV     2   --> G_5  D_5       
     e(171 -172) =     -2.78658  eV     2   --> G_5  D_5       
     e(173 -174) =     -2.74133  eV     2   --> G_5  D_5       
     e(175 -176) =     -2.67396  eV     2   --> G_5  D_5       
     e(177 -178) =     -2.63872  eV     2   --> G_5  D_5       
     e(179 -180) =     -2.52223  eV     2   --> G_5  D_5       
     e(181 -182) =     -2.35611  eV     2   --> G_5  D_5       
     e(183 -184) =     -2.31199  eV     2   --> G_5  D_5       
     e(185 -186) =     -2.10084  eV     2   --> G_5  D_5       
     e(187 -188) =     -2.03475  eV     2   --> G_5  D_5       
     e(189 -190) =     -2.01547  eV     2   --> G_5  D_5       
     e(191 -192) =     -1.97918  eV     2   --> G_5  D_5       
     e(193 -194) =     -1.97014  eV     2   --> G_5  D_5       
     e(195 -196) =     -1.89303  eV     2   --> G_5  D_5       
     e(197 -198) =     -1.87161  eV     2   --> G_5  D_5       
     e(199 -200) =     -1.85891  eV     2   --> G_5  D_5       
     e(201 -202) =     -1.74519  eV     2   --> G_5  D_5       
     e(203 -204) =     -1.68823  eV     2   --> G_5  D_5       
     e(205 -206) =     -1.66478  eV     2   --> G_5  D_5       
     e(207 -208) =     -1.41973  eV     2   --> G_5  D_5       
     e(209 -210) =     -1.33229  eV     2   --> G_5  D_5       
     e(211 -212) =     -1.27471  eV     2   --> G_5  D_5       
     e(213 -214) =     -1.26892  eV     2   --> G_5  D_5       
     e(215 -216) =     -1.19007  eV     2   --> G_5  D_5       
     e(217 -218) =     -0.65966  eV     2   --> G_5  D_5       
     e(219 -220) =     -0.63123  eV     2   --> G_5  D_5       
     e(221 -222) =     -0.55050  eV     2   --> G_5  D_5       
     e(223 -224) =     -0.51545  eV     2   --> G_5  D_5       
     e(225 -226) =     -0.35952  eV     2   --> G_5  D_5       
     e(227 -228) =     -0.20425  eV     2   --> G_5  D_5       
     e(229 -230) =     -0.18274  eV     2   --> G_5  D_5       
     e(231 -232) =     -0.14171  eV     2   --> G_5  D_5       
     e(233 -234) =     -0.03539  eV     2   --> G_5  D_5       
     e(235 -236) =      1.70897  eV     2   --> G_5  D_5       
     e(237 -238) =      1.73567  eV     2   --> G_5  D_5       
     e(239 -240) =      1.87580  eV     2   --> G_5  D_5       
     e(241 -242) =      1.88233  eV     2   --> G_5  D_5       
     e(243 -244) =      1.98652  eV     2   --> G_5  D_5       
     e(245 -246) =      2.08071  eV     2   --> G_5  D_5       
     e(247 -248) =      2.09790  eV     2   --> G_5  D_5       
     e(249 -250) =      2.14091  eV     2   --> G_5  D_5       
     e(251 -252) =      2.15836  eV     2   --> G_5  D_5       
     e(253 -254) =      2.18378  eV     2   --> G_5  D_5       
     e(255 -256) =      2.22028  eV     2   --> G_5  D_5       
     e(257 -258) =      2.24084  eV     2   --> G_5  D_5       
     e(259 -260) =      2.30762  eV     2   --> G_5  D_5       
     e(261 -262) =      2.33010  eV     2   --> G_5  D_5       
     e(263 -264) =      2.37714  eV     2   --> G_5  D_5       
     e(265 -266) =      2.43808  eV     2   --> G_5  D_5       
     e(267 -268) =      2.47162  eV     2   --> G_5  D_5       
     e(269 -270) =      2.51422  eV     2   --> G_5  D_5       
     e(271 -272) =      2.54580  eV     2   --> G_5  D_5       

 **************************************************************************

 **************************************************************************

                    xk=(   0.24537,   0.42500,   0.00000  )

     Band symmetry, C_2v (mm2)  double point group:

     e(  1 -  2) =    -55.52732  eV     2   --> G_5  D_5       
     e(  3 -  4) =    -55.51988  eV     2   --> G_5  D_5       
     e(  5 -  6) =    -55.51906  eV     2   --> G_5  D_5       
     e(  7 -  8) =    -55.46832  eV     2   --> G_5  D_5       
     e(  9 - 10) =    -55.46066  eV     2   --> G_5  D_5       
     e( 11 - 12) =    -55.45919  eV     2   --> G_5  D_5       
     e( 13 - 14) =    -55.45188  eV     2   --> G_5  D_5       
     e( 15 - 16) =    -55.44652  eV     2   --> G_5  D_5       
     e( 17 - 18) =    -55.44514  eV     2   --> G_5  D_5       
     e( 19 - 20) =    -33.01143  eV     2   --> G_5  D_5       
     e( 21 - 22) =    -33.00536  eV     2   --> G_5  D_5       
     e( 23 - 24) =    -32.99297  eV     2   --> G_5  D_5       
     e( 25 - 26) =    -32.96073  eV     2   --> G_5  D_5       
     e( 27 - 28) =    -32.95208  eV     2   --> G_5  D_5       
     e( 29 - 30) =    -32.94266  eV     2   --> G_5  D_5       
     e( 31 - 32) =    -32.93140  eV     2   --> G_5  D_5       
     e( 33 - 34) =    -32.90581  eV     2   --> G_5  D_5       
     e( 35 - 36) =    -32.88878  eV     2   --> G_5  D_5       
     e( 37 - 38) =    -30.98840  eV     2   --> G_5  D_5       
     e( 39 - 40) =    -30.97844  eV     2   --> G_5  D_5       
     e( 41 - 42) =    -30.95596  eV     2   --> G_5  D_5       
     e( 43 - 44) =    -30.94244  eV     2   --> G_5  D_5       
     e( 45 - 46) =    -30.92932  eV     2   --> G_5  D_5       
     e( 47 - 48) =    -30.91760  eV     2   --> G_5  D_5       
     e( 49 - 50) =    -30.90470  eV     2   --> G_5  D_5       
     e( 51 - 52) =    -30.88224  eV     2   --> G_5  D_5       
     e( 53 - 54) =    -30.87304  eV     2   --> G_5  D_5       
     e( 55 - 56) =    -30.86565  eV     2   --> G_5  D_5       
     e( 57 - 58) =    -30.84934  eV     2   --> G_5  D_5       
     e( 59 - 60) =    -30.83673  eV     2   --> G_5  D_5       
     e( 61 - 62) =    -30.82539  eV     2   --> G_5  D_5       
     e( 63 - 64) =    -30.81286  eV     2   --> G_5  D_5       
     e( 65 - 66) =    -30.81117  eV     2   --> G_5  D_5       
     e( 67 - 68) =    -30.80269  eV     2   --> G_5  D_5       
     e( 69 - 70) =    -30.77866  eV     2   --> G_5  D_5       
     e( 71 - 72) =    -30.75937  eV     2   --> G_5  D_5       
     e( 73 - 74) =    -13.83615  eV     2   --> G_5  D_5       
     e( 75 - 76) =    -13.67194  eV     2   --> G_5  D_5       
     e( 77 - 78) =    -13.28139  eV     2   --> G_5  D_5       
     e( 79 - 80) =    -13.26915  eV     2   --> G_5  D_5       
     e( 81 - 82) =    -13.02517  eV     2   --> G_5  D_5       
     e( 83 - 84) =    -12.92498  eV     2   --> G_5  D_5       
     e( 85 - 86) =    -12.79252  eV     2   --> G_5  D_5       
     e( 87 - 88) =    -12.77371  eV     2   --> G_5  D_5       
     e( 89 - 90) =    -12.77161  eV     2   --> G_5  D_5       
     e( 91 - 92) =    -12.72550  eV     2   --> G_5  D_5       
     e( 93 - 94) =    -12.71949  eV     2   --> G_5  D_5       
     e( 95 - 96) =    -12.69057  eV     2   --> G_5  D_5       
     e( 97 - 98) =    -12.66286  eV     2   --> G_5  D_5       
     e( 99 -100) =    -12.55506  eV     2   --> G_5  D_5       
     e(101 -102) =    -12.54574  eV     2   --> G_5  D_5       
     e(103 -104) =    -12.51020  eV     2   --> G_5  D_5       
     e(105 -106) =    -12.43120  eV     2   --> G_5  D_5       
     e(107 -108) =    -12.40412  eV     2   --> G_5  D_5       
     e(109 -110) =     -5.42764  eV     2   --> G_5  D_5       
     e(111 -112) =     -5.05184  eV     2   --> G_5  D_5       
     e(113 -114) =     -5.04059  eV     2   --> G_5  D_5       
     e(115 -116) =     -5.01475  eV     2   --> G_5  D_5       
     e(117 -118) =     -4.95571  eV     2   --> G_5  D_5       
     e(119 -120) =     -4.91765  eV     2   --> G_5  D_5       
     e(121 -122) =     -4.83252  eV     2   --> G_5  D_5       
     e(123 -124) =     -4.62155  eV     2   --> G_5  D_5       
     e(125 -126) =     -4.53023  eV     2   --> G_5  D_5       
     e(127 -128) =     -4.52859  eV     2   --> G_5  D_5       
     e(129 -130) =     -4.50316  eV     2   --> G_5  D_5       
     e(131 -132) =     -4.49398  eV     2   --> G_5  D_5       
     e(133 -134) =     -4.43507  eV     2   --> G_5  D_5       
     e(135 -136) =     -4.34556  eV     2   --> G_5  D_5       
     e(137 -138) =     -3.99567  eV     2   --> G_5  D_5       
     e(139 -140) =     -3.97291  eV     2   --> G_5  D_5       
     e(141 -142) =     -3.85124  eV     2   --> G_5  D_5       
     e(143 -144) =     -3.80929  eV     2   --> G_5  D_5       
     e(145 -146) =     -3.80088  eV     2   --> G_5  D_5       
     e(147 -148) =     -3.75267  eV     2   --> G_5  D_5       
     e(149 -150) =     -3.72178  eV     2   --> G_5  D_5       
     e(151 -152) =     -3.50704  eV     2   --> G_5  D_5       
     e(153 -154) =     -3.40657  eV     2   --> G_5  D_5       
     e(155 -156) =     -3.39574  eV     2   --> G_5  D_5       
     e(157 -158) =     -3.12692  eV     2   --> G_5  D_5       
     e(159 -160) =     -3.05005  eV     2   --> G_5  D_5       
     e(161 -162) =     -2.99828  eV     2   --> G_5  D_5       
     e(163 -164) =     -2.96134  eV     2   --> G_5  D_5       
     e(165 -166) =     -2.93476  eV     2   --> G_5  D_5       
     e(167 -168) =     -2.87788  eV     2   --> G_5  D_5       
     e(169 -170) =     -2.84324  eV     2   --> G_5  D_5       
     e(171 -172) =     -2.79884  eV     2   --> G_5  D_5       
     e(173 -174) =     -2.76127  eV     2   --> G_5  D_5       
     e(175 -176) =     -2.74561  eV     2   --> G_5  D_5       
     e(177 -178) =     -2.71661  eV     2   --> G_5  D_5       
     e(179 -180) =     -2.47894  eV     2   --> G_5  D_5       
     e(181 -182) =     -2.28509  eV     2   --> G_5  D_5       
     e(183 -184) =     -2.23999  eV     2   --> G_5  D_5       
     e(185 -186) =     -2.09968  eV     2   --> G_5  D_5       
     e(187 -188) =     -2.03621  eV     2   --> G_5  D_5       
     e(189 -190) =     -2.01713  eV     2   --> G_5  D_5       
     e(191 -192) =     -1.98899  eV     2   --> G_5  D_5       
     e(193 -194) =     -1.96419  eV     2   --> G_5  D_5       
     e(195 -196) =     -1.91220  eV     2   --> G_5  D_5       
     e(197 -198) =     -1.87057  eV     2   --> G_5  D_5       
     e(199 -200) =     -1.85062  eV     2   --> G_5  D_5       
     e(201 -202) =     -1.73270  eV     2   --> G_5  D_5       
     e(203 -204) =     -1.68195  eV     2   --> G_5  D_5       
     e(205 -206) =     -1.65020  eV     2   --> G_5  D_5       
     e(207 -208) =     -1.43246  eV     2   --> G_5  D_5       
     e(209 -210) =     -1.34095  eV     2   --> G_5  D_5       
     e(211 -212) =     -1.27597  eV     2   --> G_5  D_5       
     e(213 -214) =     -1.27129  eV     2   --> G_5  D_5       
     e(215 -216) =     -1.19202  eV     2   --> G_5  D_5       
     e(217 -218) =     -0.66484  eV     2   --> G_5  D_5       
     e(219 -220) =     -0.63687  eV     2   --> G_5  D_5       
     e(221 -222) =     -0.55908  eV     2   --> G_5  D_5       
     e(223 -224) =     -0.51612  eV     2   --> G_5  D_5       
     e(225 -226) =     -0.37362  eV     2   --> G_5  D_5       
     e(227 -228) =     -0.22261  eV     2   --> G_5  D_5       
     e(229 -230) =     -0.18862  eV     2   --> G_5  D_5       
     e(231 -232) =     -0.12781  eV     2   --> G_5  D_5       
     e(233 -234) =     -0.00780  eV     2   --> G_5  D_5       
     e(235 -236) =      1.71161  eV     2   --> G_5  D_5       
     e(237 -238) =      1.73698  eV     2   --> G_5  D_5       
     e(239 -240) =      1.86948  eV     2   --> G_5  D_5       
     e(241 -242) =      1.87827  eV     2   --> G_5  D_5       
     e(243 -244) =      1.97801  eV     2   --> G_5  D_5       
     e(245 -246) =      2.07765  eV     2   --> G_5  D_5       
     e(247 -248) =      2.11017  eV     2   --> G_5  D_5       
     e(249 -250) =      2.13455  eV     2   --> G_5  D_5       
     e(251 -252) =      2.15203  eV     2   --> G_5  D_5       
     e(253 -254) =      2.18576  eV     2   --> G_5  D_5       
     e(255 -256) =      2.21793  eV     2   --> G_5  D_5       
     e(257 -258) =      2.24993  eV     2   --> G_5  D_5       
     e(259 -260) =      2.30780  eV     2   --> G_5  D_5       
     e(261 -262) =      2.32931  eV     2   --> G_5  D_5       
     e(263 -264) =      2.38976  eV     2   --> G_5  D_5       
     e(265 -266) =      2.44864  eV     2   --> G_5  D_5       
     e(267 -268) =      2.46885  eV     2   --> G_5  D_5       
     e(269 -270) =      2.50418  eV     2   --> G_5  D_5       
     e(271 -272) =      2.54058  eV     2   --> G_5  D_5       

 **************************************************************************

 **************************************************************************

                    xk=(   0.23094,   0.40000,   0.00000  )

     Band symmetry, C_2v (mm2)  double point group:

     e(  1 -  2) =    -55.52746  eV     2   --> G_5  D_5       
     e(  3 -  4) =    -55.51966  eV     2   --> G_5  D_5       
     e(  5 -  6) =    -55.51895  eV     2   --> G_5  D_5       
     e(  7 -  8) =    -55.46873  eV     2   --> G_5  D_5       
     e(  9 - 10) =    -55.46024  eV     2   --> G_5  D_5       
     e( 11 - 12) =    -55.45896  eV     2   --> G_5  D_5       
     e( 13 - 14) =    -55.45204  eV     2   --> G_5  D_5       
     e( 15 - 16) =    -55.44608  eV     2   --> G_5  D_5       
     e( 17 - 18) =    -55.44493  eV     2   --> G_5  D_5       
     e( 19 - 20) =    -33.01067  eV     2   --> G_5  D_5       
     e( 21 - 22) =    -33.00486  eV     2   --> G_5  D_5       
     e( 23 - 24) =    -32.99285  eV     2   --> G_5  D_5       
     e( 25 - 26) =    -32.96006  eV     2   --> G_5  D_5       
     e( 27 - 28) =    -32.95104  eV     2   --> G_5  D_5       
     e( 29 - 30) =    -32.94243  eV     2   --> G_5  D_5       
     e( 31 - 32) =    -32.93138  eV     2   --> G_5  D_5       
     e( 33 - 34) =    -32.90688  eV     2   --> G_5  D_5       
     e( 35 - 36) =    -32.88954  eV     2   --> G_5  D_5       
     e( 37 - 38) =    -30.98717  eV     2   --> G_5  D_5       
     e( 39 - 40) =    -30.97803  eV     2   --> G_5  D_5       
     e( 41 - 42) =    -30.95503  eV     2   --> G_5  D_5       
     e( 43 - 44) =    -30.94145  eV     2   --> G_5  D_5       
     e( 45 - 46) =    -30.92868  eV     2   --> G_5  D_5       
     e( 47 - 48) =    -30.91775  eV     2   --> G_5  D_5       
     e( 49 - 50) =    -30.90503  eV     2   --> G_5  D_5       
     e( 51 - 52) =    -30.88299  eV     2   --> G_5  D_5       
     e( 53 - 54) =    -30.87328  eV     2   --> G_5  D_5       
     e( 55 - 56) =    -30.86543  eV     2   --> G_5  D_5       
     e( 57 - 58) =    -30.85044  eV     2   --> G_5  D_5       
     e( 59 - 60) =    -30.83638  eV     2   --> G_5  D_5       
     e( 61 - 62) =    -30.82541  eV     2   --> G_5  D_5       
     e( 63 - 64) =    -30.81260  eV     2   --> G_5  D_5       
     e( 65 - 66) =    -30.81163  eV     2   --> G_5  D_5       
     e( 67 - 68) =    -30.80219  eV     2   --> G_5  D_5       
     e( 69 - 70) =    -30.77930  eV     2   --> G_5  D_5       
     e( 71 - 72) =    -30.75884  eV     2   --> G_5  D_5       
     e( 73 - 74) =    -13.85928  eV     2   --> G_5  D_5       
     e( 75 - 76) =    -13.64179  eV     2   --> G_5  D_5       
     e( 77 - 78) =    -13.27794  eV     2   --> G_5  D_5       
     e( 79 - 80) =    -13.26587  eV     2   --> G_5  D_5       
     e( 81 - 82) =    -13.03269  eV     2   --> G_5  D_5       
     e( 83 - 84) =    -12.91475  eV     2   --> G_5  D_5       
     e( 85 - 86) =    -12.81043  eV     2   --> G_5  D_5       
     e( 87 - 88) =    -12.79091  eV     2   --> G_5  D_5       
     e( 89 - 90) =    -12.77242  eV     2   --> G_5  D_5       
     e( 91 - 92) =    -12.73309  eV     2   --> G_5  D_5       
     e( 93 - 94) =    -12.71798  eV     2   --> G_5  D_5       
     e( 95 - 96) =    -12.67593  eV     2   --> G_5  D_5       
     e( 97 - 98) =    -12.64700  eV     2   --> G_5  D_5       
     e( 99 -100) =    -12.56073  eV     2   --> G_5  D_5       
     e(101 -102) =    -12.55050  eV     2   --> G_5  D_5       
     e(103 -104) =    -12.50986  eV     2   --> G_5  D_5       
     e(105 -106) =    -12.42758  eV     2   --> G_5  D_5       
     e(107 -108) =    -12.40319  eV     2   --> G_5  D_5       
     e(109 -110) =     -5.41496  eV     2   --> G_5  D_5       
     e(111 -112) =     -5.06758  eV     2   --> G_5  D_5       
     e(113 -114) =     -5.05282  eV     2   --> G_5  D_5       
     e(115 -116) =     -5.02045  eV     2   --> G_5  D_5       
     e(117 -118) =     -4.93829  eV     2   --> G_5  D_5       
     e(119 -120) =     -4.89556  eV     2   --> G_5  D_5       
     e(121 -122) =     -4.80017  eV     2   --> G_5  D_5       
     e(123 -124) =     -4.64769  eV     2   --> G_5  D_5       
     e(125 -126) =     -4.53586  eV     2   --> G_5  D_5       
     e(127 -128) =     -4.53271  eV     2   --> G_5  D_5       
     e(129 -130) =     -4.51071  eV     2   --> G_5  D_5       
     e(131 -132) =     -4.50089  eV     2   --> G_5  D_5       
     e(133 -134) =     -4.40682  eV     2   --> G_5  D_5       
     e(135 -136) =     -4.32043  eV     2   --> G_5  D_5       
     e(137 -138) =     -3.99869  eV     2   --> G_5  D_5       
     e(139 -140) =     -3.97677  eV     2   --> G_5  D_5       
     e(141 -142) =     -3.85346  eV     2   --> G_5  D_5       
     e(143 -144) =     -3.81745  eV     2   --> G_5  D_5       
     e(145 -146) =     -3.80993  eV     2   --> G_5  D_5       
     e(147 -148) =     -3.74620  eV     2   --> G_5  D_5       
     e(149 -150) =     -3.71620  eV     2   --> G_5  D_5       
     e(151 -152) =     -3.52130  eV     2   --> G_5  D_5       
     e(153 -154) =     -3.46442  eV     2   --> G_5  D_5       
     e(155 -156) =     -3.42643  eV     2   --> G_5  D_5       
     e(157 -158) =     -3.13017  eV     2   --> G_5  D_5       
     e(159 -160) =     -3.04362  eV     2   --> G_5  D_5       
     e(161 -162) =     -2.99467  eV     2   --> G_5  D_5       
     e(163 -164) =     -2.94383  eV     2   --> G_5  D_5       
     e(165 -166) =     -2.89741  eV     2   --> G_5  D_5       
     e(167 -168) =     -2.86898  eV     2   --> G_5  D_5       
     e(169 -170) =     -2.83648  eV     2   --> G_5  D_5       
     e(171 -172) =     -2.83059  eV     2   --> G_5  D_5       
     e(173 -174) =     -2.80859  eV     2   --> G_5  D_5       
     e(175 -176) =     -2.79375  eV     2   --> G_5  D_5       
     e(177 -178) =     -2.74646  eV     2   --> G_5  D_5       
     e(179 -180) =     -2.43510  eV     2   --> G_5  D_5       
     e(181 -182) =     -2.21823  eV     2   --> G_5  D_5       
     e(183 -184) =     -2.17348  eV     2   --> G_5  D_5       
     e(185 -186) =     -2.09900  eV     2   --> G_5  D_5       
     e(187 -188) =     -2.03895  eV     2   --> G_5  D_5       
     e(189 -190) =     -2.01762  eV     2   --> G_5  D_5       
     e(191 -192) =     -2.00235  eV     2   --> G_5  D_5       
     e(193 -194) =     -1.95081  eV     2   --> G_5  D_5       
     e(195 -196) =     -1.93108  eV     2   --> G_5  D_5       
     e(197 -198) =     -1.87665  eV     2   --> G_5  D_5       
     e(199 -200) =     -1.83211  eV     2   --> G_5  D_5       
     e(201 -202) =     -1.72324  eV     2   --> G_5  D_5       
     e(203 -204) =     -1.67440  eV     2   --> G_5  D_5       
     e(205 -206) =     -1.63051  eV     2   --> G_5  D_5       
     e(207 -208) =     -1.44824  eV     2   --> G_5  D_5       
     e(209 -210) =     -1.35239  eV     2   --> G_5  D_5       
     e(211 -212) =     -1.27944  eV     2   --> G_5  D_5       
     e(213 -214) =     -1.27659  eV     2   --> G_5  D_5       
     e(215 -216) =     -1.19330  eV     2   --> G_5  D_5       
     e(217 -218) =     -0.67105  eV     2   --> G_5  D_5       
     e(219 -220) =     -0.64322  eV     2   --> G_5  D_5       
     e(221 -222) =     -0.56917  eV     2   --> G_5  D_5       
     e(223 -224) =     -0.51933  eV     2   --> G_5  D_5       
     e(225 -226) =     -0.39096  eV     2   --> G_5  D_5       
     e(227 -228) =     -0.25703  eV     2   --> G_5  D_5       
     e(229 -230) =     -0.18043  eV     2   --> G_5  D_5       
     e(231 -232) =     -0.10759  eV     2   --> G_5  D_5       
     e(233 -234) =      0.01825  eV     2   --> G_5  D_5       
     e(235 -236) =      1.71512  eV     2   --> G_5  D_5       
     e(237 -238) =      1.73888  eV     2   --> G_5  D_5       
     e(239 -240) =      1.86086  eV     2   --> G_5  D_5       
     e(241 -242) =      1.87408  eV     2   --> G_5  D_5       
     e(243 -244) =      1.96815  eV     2   --> G_5  D_5       
     e(245 -246) =      2.07412  eV     2   --> G_5  D_5       
     e(247 -248) =      2.11997  eV     2   --> G_5  D_5       
     e(249 -250) =      2.13200  eV     2   --> G_5  D_5       
     e(251 -252) =      2.14628  eV     2   --> G_5  D_5       
     e(253 -254) =      2.18840  eV     2   --> G_5  D_5       
     e(255 -256) =      2.21565  eV     2   --> G_5  D_5       
     e(257 -258) =      2.26317  eV     2   --> G_5  D_5       
     e(259 -260) =      2.30850  eV     2   --> G_5  D_5       
     e(261 -262) =      2.32890  eV     2   --> G_5  D_5       
     e(263 -264) =      2.40602  eV     2   --> G_5  D_5       
     e(265 -266) =      2.46140  eV     2   --> G_5  D_5       
     e(267 -268) =      2.46457  eV     2   --> G_5  D_5       
     e(269 -270) =      2.49944  eV     2   --> G_5  D_5       
     e(271 -272) =      2.53509  eV     2   --> G_5  D_5       

 **************************************************************************

 **************************************************************************

                    xk=(   0.21651,   0.37500,   0.00000  )

     Band symmetry, C_2v (mm2)  double point group:

     e(  1 -  2) =    -55.52787  eV     2   --> G_5  D_5       
     e(  3 -  4) =    -55.51954  eV     2   --> G_5  D_5       
     e(  5 -  6) =    -55.51942  eV     2   --> G_5  D_5       
     e(  7 -  8) =    -55.46897  eV     2   --> G_5  D_5       
     e(  9 - 10) =    -55.46022  eV     2   --> G_5  D_5       
     e( 11 - 12) =    -55.45948  eV     2   --> G_5  D_5       
     e( 13 - 14) =    -55.45244  eV     2   --> G_5  D_5       
     e( 15 - 16) =    -55.44601  eV     2   --> G_5  D_5       
     e( 17 - 18) =    -55.44529  eV     2   --> G_5  D_5       
     e( 19 - 20) =    -33.01037  eV     2   --> G_5  D_5       
     e( 21 - 22) =    -33.00502  eV     2   --> G_5  D_5       
     e( 23 - 24) =    -32.99378  eV     2   --> G_5  D_5       
     e( 25 - 26) =    -32.96037  eV     2   --> G_5  D_5       
     e( 27 - 28) =    -32.95089  eV     2   --> G_5  D_5       
     e( 29 - 30) =    -32.94268  eV     2   --> G_5  D_5       
     e( 31 - 32) =    -32.93265  eV     2   --> G_5  D_5       
     e( 33 - 34) =    -32.90868  eV     2   --> G_5  D_5       
     e( 35 - 36) =    -32.88885  eV     2   --> G_5  D_5       
     e( 37 - 38) =    -30.98653  eV     2   --> G_5  D_5       
     e( 39 - 40) =    -30.97804  eV     2   --> G_5  D_5       
     e( 41 - 42) =    -30.95479  eV     2   --> G_5  D_5       
     e( 43 - 44) =    -30.94147  eV     2   --> G_5  D_5       
     e( 45 - 46) =    -30.92886  eV     2   --> G_5  D_5       
     e( 47 - 48) =    -30.91853  eV     2   --> G_5  D_5       
     e( 49 - 50) =    -30.90673  eV     2   --> G_5  D_5       
     e( 51 - 52) =    -30.88458  eV     2   --> G_5  D_5       
     e( 53 - 54) =    -30.87411  eV     2   --> G_5  D_5       
     e( 55 - 56) =    -30.86545  eV     2   --> G_5  D_5       
     e( 57 - 58) =    -30.85167  eV     2   --> G_5  D_5       
     e( 59 - 60) =    -30.83648  eV     2   --> G_5  D_5       
     e( 61 - 62) =    -30.82568  eV     2   --> G_5  D_5       
     e( 63 - 64) =    -30.81248  eV     2   --> G_5  D_5       
     e( 65 - 66) =    -30.81176  eV     2   --> G_5  D_5       
     e( 67 - 68) =    -30.80228  eV     2   --> G_5  D_5       
     e( 69 - 70) =    -30.78033  eV     2   --> G_5  D_5       
     e( 71 - 72) =    -30.75779  eV     2   --> G_5  D_5       
     e( 73 - 74) =    -13.88129  eV     2   --> G_5  D_5       
     e( 75 - 76) =    -13.61070  eV     2   --> G_5  D_5       
     e( 77 - 78) =    -13.27361  eV     2   --> G_5  D_5       
     e( 79 - 80) =    -13.26176  eV     2   --> G_5  D_5       
     e( 81 - 82) =    -13.04044  eV     2   --> G_5  D_5       
     e( 83 - 84) =    -12.90343  eV     2   --> G_5  D_5       
     e( 85 - 86) =    -12.82885  eV     2   --> G_5  D_5       
     e( 87 - 88) =    -12.81059  eV     2   --> G_5  D_5       
     e( 89 - 90) =    -12.77094  eV     2   --> G_5  D_5       
     e( 91 - 92) =    -12.74305  eV     2   --> G_5  D_5       
     e( 93 - 94) =    -12.71602  eV     2   --> G_5  D_5       
     e( 95 - 96) =    -12.66183  eV     2   --> G_5  D_5       
     e( 97 - 98) =    -12.63179  eV     2   --> G_5  D_5       
     e( 99 -100) =    -12.56726  eV     2   --> G_5  D_5       
     e(101 -102) =    -12.55617  eV     2   --> G_5  D_5       
     e(103 -104) =    -12.51030  eV     2   --> G_5  D_5       
     e(105 -106) =    -12.42343  eV     2   --> G_5  D_5       
     e(107 -108) =    -12.40199  eV     2   --> G_5  D_5       
     e(109 -110) =     -5.39909  eV     2   --> G_5  D_5       
     e(111 -112) =     -5.09395  eV     2   --> G_5  D_5       
     e(113 -114) =     -5.05333  eV     2   --> G_5  D_5       
     e(115 -116) =     -5.02313  eV     2   --> G_5  D_5       
     e(117 -118) =     -4.91736  eV     2   --> G_5  D_5       
     e(119 -120) =     -4.87044  eV     2   --> G_5  D_5       
     e(121 -122) =     -4.76873  eV     2   --> G_5  D_5       
     e(123 -124) =     -4.67325  eV     2   --> G_5  D_5       
     e(125 -126) =     -4.55345  eV     2   --> G_5  D_5       
     e(127 -128) =     -4.54454  eV     2   --> G_5  D_5       
     e(129 -130) =     -4.51079  eV     2   --> G_5  D_5       
     e(131 -132) =     -4.49869  eV     2   --> G_5  D_5       
     e(133 -134) =     -4.37752  eV     2   --> G_5  D_5       
     e(135 -136) =     -4.29558  eV     2   --> G_5  D_5       
     e(137 -138) =     -4.00272  eV     2   --> G_5  D_5       
     e(139 -140) =     -3.98186  eV     2   --> G_5  D_5       
     e(141 -142) =     -3.85709  eV     2   --> G_5  D_5       
     e(143 -144) =     -3.82615  eV     2   --> G_5  D_5       
     e(145 -146) =     -3.81987  eV     2   --> G_5  D_5       
     e(147 -148) =     -3.73998  eV     2   --> G_5  D_5       
     e(149 -150) =     -3.71036  eV     2   --> G_5  D_5       
     e(151 -152) =     -3.53878  eV     2   --> G_5  D_5       
     e(153 -154) =     -3.53033  eV     2   --> G_5  D_5       
     e(155 -156) =     -3.45205  eV     2   --> G_5  D_5       
     e(157 -158) =     -3.13443  eV     2   --> G_5  D_5       
     e(159 -160) =     -3.04596  eV     2   --> G_5  D_5       
     e(161 -162) =     -2.99714  eV     2   --> G_5  D_5       
     e(163 -164) =     -2.94478  eV     2   --> G_5  D_5       
     e(165 -166) =     -2.91212  eV     2   --> G_5  D_5       
     e(167 -168) =     -2.89036  eV     2   --> G_5  D_5       
     e(169 -170) =     -2.86178  eV     2   --> G_5  D_5       
     e(171 -172) =     -2.82574  eV     2   --> G_5  D_5       
     e(173 -174) =     -2.82037  eV     2   --> G_5  D_5       
     e(175 -176) =     -2.79285  eV     2   --> G_5  D_5       
     e(177 -178) =     -2.73580  eV     2   --> G_5  D_5       
     e(179 -180) =     -2.39117  eV     2   --> G_5  D_5       
     e(181 -182) =     -2.16344  eV     2   --> G_5  D_5       
     e(183 -184) =     -2.12291  eV     2   --> G_5  D_5       
     e(185 -186) =     -2.08768  eV     2   --> G_5  D_5       
     e(187 -188) =     -2.04762  eV     2   --> G_5  D_5       
     e(189 -190) =     -2.02668  eV     2   --> G_5  D_5       
     e(191 -192) =     -1.99586  eV     2   --> G_5  D_5       
     e(193 -194) =     -1.94874  eV     2   --> G_5  D_5       
     e(195 -196) =     -1.93341  eV     2   --> G_5  D_5       
     e(197 -198) =     -1.88228  eV     2   --> G_5  D_5       
     e(199 -200) =     -1.81070  eV     2   --> G_5  D_5       
     e(201 -202) =     -1.71552  eV     2   --> G_5  D_5       
     e(203 -204) =     -1.66657  eV     2   --> G_5  D_5       
     e(205 -206) =     -1.60718  eV     2   --> G_5  D_5       
     e(207 -208) =     -1.46567  eV     2   --> G_5  D_5       
     e(209 -210) =     -1.36604  eV     2   --> G_5  D_5       
     e(211 -212) =     -1.28939  eV     2   --> G_5  D_5       
     e(213 -214) =     -1.28115  eV     2   --> G_5  D_5       
     e(215 -216) =     -1.19289  eV     2   --> G_5  D_5       
     e(217 -218) =     -0.67990  eV     2   --> G_5  D_5       
     e(219 -220) =     -0.65378  eV     2   --> G_5  D_5       
     e(221 -222) =     -0.58171  eV     2   --> G_5  D_5       
     e(223 -224) =     -0.52538  eV     2   --> G_5  D_5       
     e(225 -226) =     -0.41174  eV     2   --> G_5  D_5       
     e(227 -228) =     -0.29542  eV     2   --> G_5  D_5       
     e(229 -230) =     -0.16748  eV     2   --> G_5  D_5       
     e(231 -232) =     -0.08385  eV     2   --> G_5  D_5       
     e(233 -234) =      0.04274  eV     2   --> G_5  D_5       
     e(235 -236) =      1.71606  eV     2   --> G_5  D_5       
     e(237 -238) =      1.73735  eV     2   --> G_5  D_5       
     e(239 -240) =      1.84902  eV     2   --> G_5  D_5       
     e(241 -242) =      1.86967  eV     2   --> G_5  D_5       
     e(243 -244) =      1.95773  eV     2   --> G_5  D_5       
     e(245 -246) =      2.06928  eV     2   --> G_5  D_5       
     e(247 -248) =      2.11206  eV     2   --> G_5  D_5       
     e(249 -250) =      2.13358  eV     2   --> G_5  D_5       
     e(251 -252) =      2.15137  eV     2   --> G_5  D_5       
     e(253 -254) =      2.19453  eV     2   --> G_5  D_5       
     e(255 -256) =      2.21638  eV     2   --> G_5  D_5       
     e(257 -258) =      2.27904  eV     2   --> G_5  D_5       
     e(259 -260) =      2.30697  eV     2   --> G_5  D_5       
     e(261 -262) =      2.32773  eV     2   --> G_5  D_5       
     e(263 -264) =      2.42682  eV     2   --> G_5  D_5       
     e(265 -266) =      2.45528  eV     2   --> G_5  D_5       
     e(267 -268) =      2.47483  eV     2   --> G_5  D_5       
     e(269 -270) =      2.50067  eV     2   --> G_5  D_5       
     e(271 -272) =      2.52772  eV     2   --> G_5  D_5       

 **************************************************************************

 **************************************************************************

                    xk=(   0.20207,   0.35000,   0.00000  )

     Band symmetry, C_2v (mm2)  double point group:

     e(  1 -  2) =    -55.52796  eV     2   --> G_5  D_5       
     e(  3 -  4) =    -55.52033  eV     2   --> G_5  D_5       
     e(  5 -  6) =    -55.51966  eV     2   --> G_5  D_5       
     e(  7 -  8) =    -55.46888  eV     2   --> G_5  D_5       
     e(  9 - 10) =    -55.46081  eV     2   --> G_5  D_5       
     e( 11 - 12) =    -55.46014  eV     2   --> G_5  D_5       
     e( 13 - 14) =    -55.45266  eV     2   --> G_5  D_5       
     e( 15 - 16) =    -55.44663  eV     2   --> G_5  D_5       
     e( 17 - 18) =    -55.44600  eV     2   --> G_5  D_5       
     e( 19 - 20) =    -33.01119  eV     2   --> G_5  D_5       
     e( 21 - 22) =    -33.00597  eV     2   --> G_5  D_5       
     e( 23 - 24) =    -32.99457  eV     2   --> G_5  D_5       
     e( 25 - 26) =    -32.96123  eV     2   --> G_5  D_5       
     e( 27 - 28) =    -32.95164  eV     2   --> G_5  D_5       
     e( 29 - 30) =    -32.94360  eV     2   --> G_5  D_5       
     e( 31 - 32) =    -32.93378  eV     2   --> G_5  D_5       
     e( 33 - 34) =    -32.90992  eV     2   --> G_5  D_5       
     e( 35 - 36) =    -32.88720  eV     2   --> G_5  D_5       
     e( 37 - 38) =    -30.98662  eV     2   --> G_5  D_5       
     e( 39 - 39) =    -30.97837  eV     1   -->   ?
     e( 40 - 40) =    -30.97826  eV     1   -->   ?
     e( 41 - 42) =    -30.95506  eV     2   --> G_5  D_5       
     e( 43 - 44) =    -30.94169  eV     2   --> G_5  D_5       
     e( 45 - 46) =    -30.92930  eV     2   --> G_5  D_5       
     e( 47 - 48) =    -30.91938  eV     2   --> G_5  D_5       
     e( 49 - 50) =    -30.90799  eV     2   --> G_5  D_5       
     e( 51 - 52) =    -30.88596  eV     2   --> G_5  D_5       
     e( 53 - 54) =    -30.87516  eV     2   --> G_5  D_5       
     e( 55 - 56) =    -30.86613  eV     2   --> G_5  D_5       
     e( 57 - 58) =    -30.85314  eV     2   --> G_5  D_5       
     e( 59 - 60) =    -30.83743  eV     2   --> G_5  D_5       
     e( 61 - 62) =    -30.82631  eV     2   --> G_5  D_5       
     e( 63 - 64) =    -30.81331  eV     2   --> G_5  D_5       
     e( 65 - 66) =    -30.81240  eV     2   --> G_5  D_5       
     e( 67 - 68) =    -30.80272  eV     2   --> G_5  D_5       
     e( 69 - 70) =    -30.78149  eV     2   --> G_5  D_5       
     e( 71 - 72) =    -30.75554  eV     2   --> G_5  D_5       
     e( 73 - 74) =    -13.90209  eV     2   --> G_5  D_5       
     e( 75 - 76) =    -13.57890  eV     2   --> G_5  D_5       
     e( 77 - 78) =    -13.26824  eV     2   --> G_5  D_5       
     e( 79 - 80) =    -13.25665  eV     2   --> G_5  D_5       
     e( 81 - 82) =    -13.04830  eV     2   --> G_5  D_5       
     e( 83 - 84) =    -12.89133  eV     2   --> G_5  D_5       
     e( 85 - 86) =    -12.84753  eV     2   --> G_5  D_5       
     e( 87 - 88) =    -12.83052  eV     2   --> G_5  D_5       
     e( 89 - 90) =    -12.76908  eV     2   --> G_5  D_5       
     e( 91 - 92) =    -12.75513  eV     2   --> G_5  D_5       
     e( 93 - 94) =    -12.71356  eV     2   --> G_5  D_5       
     e( 95 - 96) =    -12.64847  eV     2   --> G_5  D_5       
     e( 97 - 98) =    -12.61738  eV     2   --> G_5  D_5       
     e( 99 -100) =    -12.57439  eV     2   --> G_5  D_5       
     e(101 -102) =    -12.56250  eV     2   --> G_5  D_5       
     e(103 -104) =    -12.51167  eV     2   --> G_5  D_5       
     e(105 -106) =    -12.41894  eV     2   --> G_5  D_5       
     e(107 -108) =    -12.40046  eV     2   --> G_5  D_5       
     e(109 -110) =     -5.37982  eV     2   --> G_5  D_5       
     e(111 -112) =     -5.12022  eV     2   --> G_5  D_5       
     e(113 -114) =     -5.05172  eV     2   --> G_5  D_5       
     e(115 -116) =     -5.02358  eV     2   --> G_5  D_5       
     e(117 -118) =     -4.89370  eV     2   --> G_5  D_5       
     e(119 -120) =     -4.84276  eV     2   --> G_5  D_5       
     e(121 -122) =     -4.73742  eV     2   --> G_5  D_5       
     e(123 -124) =     -4.69808  eV     2   --> G_5  D_5       
     e(125 -126) =     -4.57573  eV     2   --> G_5  D_5       
     e(127 -128) =     -4.55468  eV     2   --> G_5  D_5       
     e(129 -130) =     -4.52200  eV     2   --> G_5  D_5       
     e(131 -132) =     -4.48181  eV     2   --> G_5  D_5       
     e(133 -134) =     -4.34798  eV     2   --> G_5  D_5       
     e(135 -136) =     -4.27110  eV     2   --> G_5  D_5       
     e(137 -138) =     -4.00682  eV     2   --> G_5  D_5       
     e(139 -140) =     -3.98721  eV     2   --> G_5  D_5       
     e(141 -142) =     -3.86222  eV     2   --> G_5  D_5       
     e(143 -144) =     -3.83524  eV     2   --> G_5  D_5       
     e(145 -146) =     -3.82968  eV     2   --> G_5  D_5       
     e(147 -148) =     -3.73485  eV     2   --> G_5  D_5       
     e(149 -150) =     -3.70540  eV     2   --> G_5  D_5       
     e(151 -152) =     -3.59577  eV     2   --> G_5  D_5       
     e(153 -154) =     -3.55774  eV     2   --> G_5  D_5       
     e(155 -156) =     -3.48012  eV     2   --> G_5  D_5       
     e(157 -158) =     -3.14250  eV     2   --> G_5  D_5       
     e(159 -160) =     -3.06681  eV     2   --> G_5  D_5       
     e(161 -162) =     -3.00740  eV     2   --> G_5  D_5       
     e(163 -164) =     -2.98412  eV     2   --> G_5  D_5       
     e(165 -166) =     -2.96234  eV     2   --> G_5  D_5       
     e(167 -168) =     -2.93052  eV     2   --> G_5  D_5       
     e(169 -170) =     -2.85687  eV     2   --> G_5  D_5       
     e(171 -172) =     -2.80906  eV     2   --> G_5  D_5       
     e(173 -174) =     -2.77683  eV     2   --> G_5  D_5       
     e(175 -176) =     -2.76183  eV     2   --> G_5  D_5       
     e(177 -178) =     -2.72130  eV     2   --> G_5  D_5       
     e(179 -180) =     -2.35012  eV     2   --> G_5  D_5       
     e(181 -182) =     -2.14233  eV     2   --> G_5  D_5       
     e(183 -184) =     -2.09281  eV     2   --> G_5  D_5       
     e(185 -186) =     -2.07063  eV     2   --> G_5  D_5       
     e(187 -188) =     -2.05183  eV     2   --> G_5  D_5       
     e(189 -190) =     -2.01762  eV     2   --> G_5  D_5       
     e(191 -192) =     -1.97827  eV     2   --> G_5  D_5       
     e(193 -194) =     -1.96023  eV     2   --> G_5  D_5       
     e(195 -196) =     -1.91428  eV     2   --> G_5  D_5       
     e(197 -198) =     -1.88450  eV     2   --> G_5  D_5       
     e(199 -200) =     -1.78889  eV     2   --> G_5  D_5       
     e(201 -202) =     -1.70768  eV     2   --> G_5  D_5       
     e(203 -204) =     -1.65900  eV     2   --> G_5  D_5       
     e(205 -206) =     -1.58324  eV     2   --> G_5  D_5       
     e(207 -208) =     -1.48361  eV     2   --> G_5  D_5       
     e(209 -210) =     -1.38112  eV     2   --> G_5  D_5       
     e(211 -212) =     -1.30479  eV     2   --> G_5  D_5       
     e(213 -214) =     -1.28579  eV     2   --> G_5  D_5       
     e(215 -216) =     -1.19133  eV     2   --> G_5  D_5       
     e(217 -218) =     -0.69052  eV     2   --> G_5  D_5       
     e(219 -220) =     -0.66484  eV     2   --> G_5  D_5       
     e(221 -222) =     -0.59503  eV     2   --> G_5  D_5       
     e(223 -224) =     -0.53390  eV     2   --> G_5  D_5       
     e(225 -226) =     -0.43393  eV     2   --> G_5  D_5       
     e(227 -228) =     -0.33296  eV     2   --> G_5  D_5       
     e(229 -230) =     -0.15178  eV     2   --> G_5  D_5       
     e(231 -232) =     -0.05877  eV     2   --> G_5  D_5       
     e(233 -234) =      0.06577  eV     2   --> G_5  D_5       
     e(235 -236) =      1.71471  eV     2   --> G_5  D_5       
     e(237 -238) =      1.73491  eV     2   --> G_5  D_5       
     e(239 -240) =      1.83843  eV     2   --> G_5  D_5       
     e(241 -242) =      1.86672  eV     2   --> G_5  D_5       
     e(243 -244) =      1.94885  eV     2   --> G_5  D_5       
     e(245 -246) =      2.06371  eV     2   --> G_5  D_5       
     e(247 -248) =      2.09967  eV     2   --> G_5  D_5       
     e(249 -250) =      2.12610  eV     2   --> G_5  D_5       
     e(251 -252) =      2.16799  eV     2   --> G_5  D_5       
     e(253 -254) =      2.19645  eV     2   --> G_5  D_5       
     e(255 -256) =      2.22354  eV     2   --> G_5  D_5       
     e(257 -258) =      2.29453  eV     2   --> G_5  D_5       
     e(259 -260) =      2.30694  eV     2   --> G_5  D_5       
     e(261 -262) =      2.32936  eV     2   --> G_5  D_5       
     e(263 -264) =      2.44435  eV     2   --> G_5  D_5       
     e(265 -266) =      2.45076  eV     2   --> G_5  D_5       
     e(267 -268) =      2.47951  eV     2   --> G_5  D_5       
     e(269 -270) =      2.51275  eV     2   --> G_5  D_5       
     e(271 -272) =      2.51853  eV     2   --> G_5  D_5       

 **************************************************************************

 **************************************************************************

                    xk=(   0.18764,   0.32500,   0.00000  )

     Band symmetry, C_2v (mm2)  double point group:

     e(  1 -  2) =    -55.52835  eV     2   --> G_5  D_5       
     e(  3 -  4) =    -55.52106  eV     2   --> G_5  D_5       
     e(  5 -  6) =    -55.52027  eV     2   --> G_5  D_5       
     e(  7 -  8) =    -55.46950  eV     2   --> G_5  D_5       
     e(  9 - 12) =    -55.46110  eV     4   -->   2 G_5  D_5       
     e( 13 - 14) =    -55.45344  eV     2   --> G_5  D_5       
     e( 15 - 16) =    -55.44697  eV     2   --> G_5  D_5       
     e( 17 - 18) =    -55.44658  eV     2   --> G_5  D_5       
     e( 19 - 20) =    -33.01222  eV     2   --> G_5  D_5       
     e( 21 - 22) =    -33.00684  eV     2   --> G_5  D_5       
     e( 23 - 24) =    -32.99531  eV     2   --> G_5  D_5       
     e( 25 - 26) =    -32.96192  eV     2   --> G_5  D_5       
     e( 27 - 28) =    -32.95225  eV     2   --> G_5  D_5       
     e( 29 - 30) =    -32.94433  eV     2   --> G_5  D_5       
     e( 31 - 32) =    -32.93551  eV     2   --> G_5  D_5       
     e( 33 - 34) =    -32.91131  eV     2   --> G_5  D_5       
     e( 35 - 36) =    -32.88778  eV     2   --> G_5  D_5       
     e( 37 - 38) =    -30.98702  eV     2   --> G_5  D_5       
     e( 39 - 39) =    -30.97879  eV     1   -->   ?
     e( 40 - 40) =    -30.97867  eV     1   -->   ?
     e( 41 - 42) =    -30.95567  eV     2   --> G_5  D_5       
     e( 43 - 44) =    -30.94238  eV     2   --> G_5  D_5       
     e( 45 - 46) =    -30.92980  eV     2   --> G_5  D_5       
     e( 47 - 48) =    -30.92043  eV     2   --> G_5  D_5       
     e( 49 - 50) =    -30.90951  eV     2   --> G_5  D_5       
     e( 51 - 52) =    -30.88748  eV     2   --> G_5  D_5       
     e( 53 - 54) =    -30.87626  eV     2   --> G_5  D_5       
     e( 55 - 56) =    -30.86721  eV     2   --> G_5  D_5       
     e( 57 - 58) =    -30.85445  eV     2   --> G_5  D_5       
     e( 59 - 60) =    -30.83806  eV     2   --> G_5  D_5       
     e( 61 - 62) =    -30.82662  eV     2   --> G_5  D_5       
     e( 63 - 64) =    -30.81400  eV     2   --> G_5  D_5       
     e( 65 - 66) =    -30.81354  eV     2   --> G_5  D_5       
     e( 67 - 68) =    -30.80321  eV     2   --> G_5  D_5       
     e( 69 - 70) =    -30.78284  eV     2   --> G_5  D_5       
     e( 71 - 72) =    -30.75463  eV     2   --> G_5  D_5       
     e( 73 - 74) =    -13.92167  eV     2   --> G_5  D_5       
     e( 75 - 76) =    -13.54634  eV     2   --> G_5  D_5       
     e( 77 - 78) =    -13.26202  eV     2   --> G_5  D_5       
     e( 79 - 80) =    -13.25074  eV     2   --> G_5  D_5       
     e( 81 - 82) =    -13.05602  eV     2   --> G_5  D_5       
     e( 83 - 84) =    -12.87868  eV     2   --> G_5  D_5       
     e( 85 - 86) =    -12.86642  eV     2   --> G_5  D_5       
     e( 87 - 88) =    -12.85068  eV     2   --> G_5  D_5       
     e( 89 - 90) =    -12.76939  eV     2   --> G_5  D_5       
     e( 91 - 92) =    -12.76693  eV     2   --> G_5  D_5       
     e( 93 - 94) =    -12.71067  eV     2   --> G_5  D_5       
     e( 95 - 96) =    -12.63571  eV     2   --> G_5  D_5       
     e( 97 - 98) =    -12.60365  eV     2   --> G_5  D_5       
     e( 99 -100) =    -12.58197  eV     2   --> G_5  D_5       
     e(101 -102) =    -12.56929  eV     2   --> G_5  D_5       
     e(103 -104) =    -12.51409  eV     2   --> G_5  D_5       
     e(105 -106) =    -12.41426  eV     2   --> G_5  D_5       
     e(107 -108) =    -12.39865  eV     2   --> G_5  D_5       
     e(109 -110) =     -5.35754  eV     2   --> G_5  D_5       
     e(111 -112) =     -5.14567  eV     2   --> G_5  D_5       
     e(113 -114) =     -5.04847  eV     2   --> G_5  D_5       
     e(115 -116) =     -5.02229  eV     2   --> G_5  D_5       
     e(117 -118) =     -4.86753  eV     2   --> G_5  D_5       
     e(119 -120) =     -4.81230  eV     2   --> G_5  D_5       
     e(121 -122) =     -4.72143  eV     2   --> G_5  D_5       
     e(123 -124) =     -4.70740  eV     2   --> G_5  D_5       
     e(125 -126) =     -4.59727  eV     2   --> G_5  D_5       
     e(127 -128) =     -4.56678  eV     2   --> G_5  D_5       
     e(129 -130) =     -4.53542  eV     2   --> G_5  D_5       
     e(131 -132) =     -4.46157  eV     2   --> G_5  D_5       
     e(133 -134) =     -4.31840  eV     2   --> G_5  D_5       
     e(135 -136) =     -4.24694  eV     2   --> G_5  D_5       
     e(137 -138) =     -4.01111  eV     2   --> G_5  D_5       
     e(139 -140) =     -3.99289  eV     2   --> G_5  D_5       
     e(141 -142) =     -3.86877  eV     2   --> G_5  D_5       
     e(143 -144) =     -3.84511  eV     2   --> G_5  D_5       
     e(145 -146) =     -3.83834  eV     2   --> G_5  D_5       
     e(147 -148) =     -3.73149  eV     2   --> G_5  D_5       
     e(149 -150) =     -3.70164  eV     2   --> G_5  D_5       
     e(151 -152) =     -3.65782  eV     2   --> G_5  D_5       
     e(153 -154) =     -3.57923  eV     2   --> G_5  D_5       
     e(155 -156) =     -3.51011  eV     2   --> G_5  D_5       
     e(157 -158) =     -3.16193  eV     2   --> G_5  D_5       
     e(159 -160) =     -3.09910  eV     2   --> G_5  D_5       
     e(161 -162) =     -3.07105  eV     2   --> G_5  D_5       
     e(163 -164) =     -3.03822  eV     2   --> G_5  D_5       
     e(165 -166) =     -2.98472  eV     2   --> G_5  D_5       
     e(167 -168) =     -2.91408  eV     2   --> G_5  D_5       
     e(169 -170) =     -2.84555  eV     2   --> G_5  D_5       
     e(171 -172) =     -2.79639  eV     2   --> G_5  D_5       
     e(173 -174) =     -2.74380  eV     2   --> G_5  D_5       
     e(175 -176) =     -2.71252  eV     2   --> G_5  D_5       
     e(177 -178) =     -2.70157  eV     2   --> G_5  D_5       
     e(179 -180) =     -2.31365  eV     2   --> G_5  D_5       
     e(181 -182) =     -2.14236  eV     2   --> G_5  D_5       
     e(183 -184) =     -2.11125  eV     2   --> G_5  D_5       
     e(185 -186) =     -2.05971  eV     2   --> G_5  D_5       
     e(187 -188) =     -2.03210  eV     2   --> G_5  D_5       
     e(189 -190) =     -1.99553  eV     2   --> G_5  D_5       
     e(191 -192) =     -1.96270  eV     2   --> G_5  D_5       
     e(193 -194) =     -1.94575  eV     2   --> G_5  D_5       
     e(195 -196) =     -1.89279  eV     2   --> G_5  D_5       
     e(197 -198) =     -1.87815  eV     2   --> G_5  D_5       
     e(199 -200) =     -1.76850  eV     2   --> G_5  D_5       
     e(201 -202) =     -1.69728  eV     2   --> G_5  D_5       
     e(203 -204) =     -1.65139  eV     2   --> G_5  D_5       
     e(205 -206) =     -1.56077  eV     2   --> G_5  D_5       
     e(207 -208) =     -1.50075  eV     2   --> G_5  D_5       
     e(209 -210) =     -1.39684  eV     2   --> G_5  D_5       
     e(211 -212) =     -1.32369  eV     2   --> G_5  D_5       
     e(213 -214) =     -1.29118  eV     2   --> G_5  D_5       
     e(215 -216) =     -1.19015  eV     2   --> G_5  D_5       
     e(217 -218) =     -0.70235  eV     2   --> G_5  D_5       
     e(219 -220) =     -0.67803  eV     2   --> G_5  D_5       
     e(221 -222) =     -0.60924  eV     2   --> G_5  D_5       
     e(223 -224) =     -0.54446  eV     2   --> G_5  D_5       
     e(225 -226) =     -0.45681  eV     2   --> G_5  D_5       
     e(227 -228) =     -0.36954  eV     2   --> G_5  D_5       
     e(229 -230) =     -0.13305  eV     2   --> G_5  D_5       
     e(231 -232) =     -0.03170  eV     2   --> G_5  D_5       
     e(233 -234) =      0.08550  eV     2   --> G_5  D_5       
     e(235 -236) =      1.70781  eV     2   --> G_5  D_5       
     e(237 -238) =      1.72760  eV     2   --> G_5  D_5       
     e(239 -240) =      1.83153  eV     2   --> G_5  D_5       
     e(241 -242) =      1.86578  eV     2   --> G_5  D_5       
     e(243 -244) =      1.94273  eV     2   --> G_5  D_5       
     e(245 -246) =      2.05801  eV     2   --> G_5  D_5       
     e(247 -248) =      2.08570  eV     2   --> G_5  D_5       
     e(249 -250) =      2.11633  eV     2   --> G_5  D_5       
     e(251 -252) =      2.17827  eV     2   --> G_5  D_5       
     e(253 -254) =      2.19820  eV     2   --> G_5  D_5       
     e(255 -256) =      2.23318  eV     2   --> G_5  D_5       
     e(257 -258) =      2.29754  eV     2   --> G_5  D_5       
     e(259 -260) =      2.31188  eV     2   --> G_5  D_5       
     e(261 -262) =      2.33862  eV     2   --> G_5  D_5       
     e(263 -264) =      2.43346  eV     2   --> G_5  D_5       
     e(265 -266) =      2.46809  eV     2   --> G_5  D_5       
     e(267 -268) =      2.48430  eV     2   --> G_5  D_5       
     e(269 -270) =      2.50538  eV     2   --> G_5  D_5       
     e(271 -272) =      2.53760  eV     2   --> G_5  D_5       

 **************************************************************************

 **************************************************************************

                    xk=(   0.17321,   0.30000,   0.00000  )

     Band symmetry, C_2v (mm2)  double point group:

     e(  1 -  2) =    -55.52828  eV     2   --> G_5  D_5       
     e(  3 -  4) =    -55.52072  eV     2   --> G_5  D_5       
     e(  5 -  6) =    -55.52000  eV     2   --> G_5  D_5       
     e(  7 -  8) =    -55.46930  eV     2   --> G_5  D_5       
     e(  9 - 10) =    -55.46110  eV     2   --> G_5  D_5       
     e( 11 - 12) =    -55.46080  eV     2   --> G_5  D_5       
     e( 13 - 14) =    -55.45322  eV     2   --> G_5  D_5       
     e( 15 - 16) =    -55.44660  eV     2   --> G_5  D_5       
     e( 17 - 18) =    -55.44585  eV     2   --> G_5  D_5       
     e( 19 - 20) =    -33.01144  eV     2   --> G_5  D_5       
     e( 21 - 22) =    -33.00613  eV     2   --> G_5  D_5       
     e( 23 - 24) =    -32.99495  eV     2   --> G_5  D_5       
     e( 25 - 26) =    -32.96138  eV     2   --> G_5  D_5       
     e( 27 - 28) =    -32.95162  eV     2   --> G_5  D_5       
     e( 29 - 30) =    -32.94380  eV     2   --> G_5  D_5       
     e( 31 - 32) =    -32.93493  eV     2   --> G_5  D_5       
     e( 33 - 34) =    -32.91260  eV     2   --> G_5  D_5       
     e( 35 - 36) =    -32.88684  eV     2   --> G_5  D_5       
     e( 37 - 38) =    -30.98603  eV     2   --> G_5  D_5       
     e( 39 - 39) =    -30.97757  eV     1   -->   ?
     e( 40 - 40) =    -30.97746  eV     1   -->   ?
     e( 41 - 42) =    -30.95482  eV     2   --> G_5  D_5       
     e( 43 - 44) =    -30.94165  eV     2   --> G_5  D_5       
     e( 45 - 46) =    -30.92911  eV     2   --> G_5  D_5       
     e( 47 - 48) =    -30.91994  eV     2   --> G_5  D_5       
     e( 49 - 50) =    -30.90981  eV     2   --> G_5  D_5       
     e( 51 - 52) =    -30.88819  eV     2   --> G_5  D_5       
     e( 53 - 54) =    -30.87639  eV     2   --> G_5  D_5       
     e( 55 - 56) =    -30.86667  eV     2   --> G_5  D_5       
     e( 57 - 58) =    -30.85540  eV     2   --> G_5  D_5       
     e( 59 - 60) =    -30.83748  eV     2   --> G_5  D_5       
     e( 61 - 62) =    -30.82621  eV     2   --> G_5  D_5       
     e( 63 - 64) =    -30.81370  eV     2   --> G_5  D_5       
     e( 65 - 66) =    -30.81305  eV     2   --> G_5  D_5       
     e( 67 - 68) =    -30.80284  eV     2   --> G_5  D_5       
     e( 69 - 70) =    -30.78387  eV     2   --> G_5  D_5       
     e( 71 - 72) =    -30.75315  eV     2   --> G_5  D_5       
     e( 73 - 74) =    -13.93995  eV     2   --> G_5  D_5       
     e( 75 - 76) =    -13.51327  eV     2   --> G_5  D_5       
     e( 77 - 78) =    -13.25472  eV     2   --> G_5  D_5       
     e( 79 - 80) =    -13.24379  eV     2   --> G_5  D_5       
     e( 81 - 82) =    -13.06328  eV     2   --> G_5  D_5       
     e( 83 - 84) =    -12.88539  eV     2   --> G_5  D_5       
     e( 85 - 86) =    -12.87088  eV     2   --> G_5  D_5       
     e( 87 - 88) =    -12.86570  eV     2   --> G_5  D_5       
     e( 89 - 90) =    -12.78558  eV     2   --> G_5  D_5       
     e( 91 - 92) =    -12.76440  eV     2   --> G_5  D_5       
     e( 93 - 94) =    -12.70725  eV     2   --> G_5  D_5       
     e( 95 - 96) =    -12.62367  eV     2   --> G_5  D_5       
     e( 97 - 98) =    -12.59077  eV     2   --> G_5  D_5       
     e( 99 -100) =    -12.58977  eV     2   --> G_5  D_5       
     e(101 -102) =    -12.57634  eV     2   --> G_5  D_5       
     e(103 -104) =    -12.51752  eV     2   --> G_5  D_5       
     e(105 -106) =    -12.40954  eV     2   --> G_5  D_5       
     e(107 -108) =    -12.39653  eV     2   --> G_5  D_5       
     e(109 -110) =     -5.33199  eV     2   --> G_5  D_5       
     e(111 -112) =     -5.16877  eV     2   --> G_5  D_5       
     e(113 -114) =     -5.04277  eV     2   --> G_5  D_5       
     e(115 -116) =     -5.01841  eV     2   --> G_5  D_5       
     e(117 -118) =     -4.83947  eV     2   --> G_5  D_5       
     e(119 -120) =     -4.77938  eV     2   --> G_5  D_5       
     e(121 -122) =     -4.74230  eV     2   --> G_5  D_5       
     e(123 -124) =     -4.68022  eV     2   --> G_5  D_5       
     e(125 -126) =     -4.61754  eV     2   --> G_5  D_5       
     e(127 -128) =     -4.57988  eV     2   --> G_5  D_5       
     e(129 -130) =     -4.55015  eV     2   --> G_5  D_5       
     e(131 -132) =     -4.43796  eV     2   --> G_5  D_5       
     e(133 -134) =     -4.28858  eV     2   --> G_5  D_5       
     e(135 -136) =     -4.22277  eV     2   --> G_5  D_5       
     e(137 -138) =     -4.01494  eV     2   --> G_5  D_5       
     e(139 -140) =     -3.99828  eV     2   --> G_5  D_5       
     e(141 -142) =     -3.87661  eV     2   --> G_5  D_5       
     e(143 -144) =     -3.85568  eV     2   --> G_5  D_5       
     e(145 -146) =     -3.84631  eV     2   --> G_5  D_5       
     e(147 -148) =     -3.73787  eV     2   --> G_5  D_5       
     e(149 -150) =     -3.71111  eV     2   --> G_5  D_5       
     e(151 -152) =     -3.69534  eV     2   --> G_5  D_5       
     e(153 -154) =     -3.60162  eV     2   --> G_5  D_5       
     e(155 -156) =     -3.54103  eV     2   --> G_5  D_5       
     e(157 -158) =     -3.20049  eV     2   --> G_5  D_5       
     e(159 -160) =     -3.15915  eV     2   --> G_5  D_5       
[...]
     e(119 -119) =     -4.95398  eV     1   --> G_4            
     e(120 -120) =     -4.94653  eV     1   --> G_3            
     e(121 -121) =     -4.90920  eV     1   --> G_4            
     e(122 -122) =     -4.90874  eV     1   --> G_3            
     e(123 -123) =     -4.56774  eV     1   --> G_3            
     e(124 -124) =     -4.55344  eV     1   --> G_4            
     e(125 -125) =     -4.54447  eV     1   --> G_3            
     e(126 -126) =     -4.53101  eV     1   --> G_4            
     e(127 -127) =     -4.52297  eV     1   --> G_4            
     e(128 -128) =     -4.52239  eV     1   --> G_3            
     e(129 -129) =     -4.52008  eV     1   --> G_3            
     e(130 -130) =     -4.50413  eV     1   --> G_4            
     e(131 -131) =     -4.48698  eV     1   --> G_3            
     e(132 -132) =     -4.48420  eV     1   --> G_4            
     e(133 -133) =     -4.44680  eV     1   --> G_4            
     e(134 -134) =     -4.42363  eV     1   --> G_3            
     e(135 -135) =     -4.42113  eV     1   --> G_4            
     e(136 -136) =     -4.39618  eV     1   --> G_3            
     e(137 -137) =     -4.00133  eV     1   --> G_4            
     e(138 -138) =     -3.97820  eV     1   --> G_3            
     e(139 -139) =     -3.97600  eV     1   --> G_3            
     e(140 -140) =     -3.95601  eV     1   --> G_4            
     e(141 -141) =     -3.84862  eV     1   --> G_4            
     e(142 -142) =     -3.84818  eV     1   --> G_3            
     e(143 -143) =     -3.79340  eV     1   --> G_4            
     e(144 -144) =     -3.79240  eV     1   --> G_3            
     e(145 -145) =     -3.78320  eV     1   --> G_4            
     e(146 -146) =     -3.78198  eV     1   --> G_3            
     e(147 -147) =     -3.77024  eV     1   --> G_3            
     e(148 -148) =     -3.76964  eV     1   --> G_4            
     e(149 -149) =     -3.73329  eV     1   --> G_3            
     e(150 -150) =     -3.73239  eV     1   --> G_4            
     e(151 -151) =     -3.51612  eV     1   --> G_4            
     e(152 -152) =     -3.47372  eV     1   --> G_3            
     e(153 -153) =     -3.38441  eV     1   --> G_3            
     e(154 -154) =     -3.35210  eV     1   --> G_4            
     e(155 -155) =     -3.24733  eV     1   --> G_4            
     e(156 -156) =     -3.24698  eV     1   --> G_3            
     e(157 -157) =     -3.12724  eV     1   --> G_3            
     e(158 -158) =     -3.11740  eV     1   --> G_4            
     e(159 -159) =     -3.10465  eV     1   --> G_3            
     e(160 -160) =     -3.10414  eV     1   --> G_4            
     e(161 -161) =     -3.06806  eV     1   --> G_3            
     e(162 -162) =     -3.06115  eV     1   --> G_4            
     e(163 -163) =     -3.00733  eV     1   --> G_4            
     e(164 -164) =     -2.99973  eV     1   --> G_3            
     e(165 -165) =     -2.95016  eV     1   --> G_3            
     e(166 -166) =     -2.93584  eV     1   --> G_4            
     e(167 -167) =     -2.90670  eV     1   --> G_4            
     e(168 -168) =     -2.89926  eV     1   --> G_3            
     e(169 -169) =     -2.85176  eV     1   --> G_4            
     e(170 -170) =     -2.85143  eV     1   --> G_3            
     e(171 -171) =     -2.78467  eV     1   --> G_3            
     e(172 -172) =     -2.78250  eV     1   --> G_4            
     e(173 -173) =     -2.69987  eV     1   --> G_4            
     e(174 -174) =     -2.69368  eV     1   --> G_3            
     e(175 -175) =     -2.58424  eV     1   --> G_4            
     e(176 -176) =     -2.58197  eV     1   --> G_3            
     e(177 -177) =     -2.55964  eV     1   --> G_4            
     e(178 -178) =     -2.53156  eV     1   --> G_3            
     e(179 -179) =     -2.52375  eV     1   --> G_3            
     e(180 -180) =     -2.51898  eV     1   --> G_4            
     e(181 -181) =     -2.46811  eV     1   --> G_3            
     e(182 -182) =     -2.46585  eV     1   --> G_4            
     e(183 -183) =     -2.44089  eV     1   --> G_3            
     e(184 -184) =     -2.42193  eV     1   --> G_4            
     e(185 -185) =     -2.10709  eV     1   --> G_4            
     e(186 -186) =     -2.09911  eV     1   --> G_3            
     e(187 -187) =     -2.03547  eV     1   --> G_4            
     e(188 -188) =     -2.03366  eV     1   --> G_3            
     e(189 -189) =     -2.01075  eV     1   --> G_4            
     e(190 -190) =     -2.00986  eV     1   --> G_3            
     e(191 -191) =     -1.98825  eV     1   --> G_3            
     e(192 -192) =     -1.98461  eV     1   --> G_4            
     e(193 -193) =     -1.96291  eV     1   --> G_3            
     e(194 -194) =     -1.95917  eV     1   --> G_4            
     e(195 -195) =     -1.88809  eV     1   --> G_3            
     e(196 -196) =     -1.87985  eV     1   --> G_4            
     e(197 -197) =     -1.87698  eV     1   --> G_3            
     e(198 -198) =     -1.87140  eV     1   --> G_4            
     e(199 -199) =     -1.85127  eV     1   --> G_3            
     e(200 -200) =     -1.84630  eV     1   --> G_4            
     e(201 -201) =     -1.77320  eV     1   --> G_3            
     e(202 -202) =     -1.75965  eV     1   --> G_4            
     e(203 -203) =     -1.69884  eV     1   --> G_3            
     e(204 -204) =     -1.68718  eV     1   --> G_4            
     e(205 -205) =     -1.67681  eV     1   --> G_3            
     e(206 -206) =     -1.67603  eV     1   --> G_4            
     e(207 -207) =     -1.41123  eV     1   --> G_4            
     e(208 -208) =     -1.40603  eV     1   --> G_3            
     e(209 -209) =     -1.32617  eV     1   --> G_4            
     e(210 -210) =     -1.32159  eV     1   --> G_3            
     e(211 -211) =     -1.27839  eV     1   --> G_3            
     e(212 -212) =     -1.27713  eV     1   --> G_4            
     e(213 -213) =     -1.26822  eV     1   --> G_4            
     e(214 -214) =     -1.26557  eV     1   --> G_3            
     e(215 -215) =     -1.19687  eV     1   --> G_4            
     e(216 -216) =     -1.17738  eV     1   --> G_3            
     e(217 -217) =     -0.65834  eV     1   --> G_4            
     e(218 -218) =     -0.65172  eV     1   --> G_3            
     e(219 -219) =     -0.62866  eV     1   --> G_3            
     e(220 -220) =     -0.62170  eV     1   --> G_4            
     e(221 -221) =     -0.54167  eV     1   --> G_4            
     e(222 -222) =     -0.53809  eV     1   --> G_3            
     e(223 -223) =     -0.51726  eV     1   --> G_3            
     e(224 -224) =     -0.51278  eV     1   --> G_4            
     e(225 -225) =     -0.34525  eV     1   --> G_3            
     e(226 -226) =     -0.34509  eV     1   --> G_4            
     e(227 -227) =     -0.20500  eV     1   --> G_4            
     e(228 -228) =     -0.20272  eV     1   --> G_3            
     e(229 -229) =     -0.17940  eV     1   --> G_4            
     e(230 -230) =     -0.17521  eV     1   --> G_3            
     e(231 -232) =     -0.11693  eV     2   --> G_3            
     e(231 -232) =     -0.11693  eV     2   --> G_4            
     e(233 -233) =     -0.08368  eV     1   --> G_4            
     e(234 -234) =     -0.08307  eV     1   --> G_3            
     e(235 -235) =      1.70735  eV     1   --> G_4            
     e(236 -236) =      1.70974  eV     1   --> G_3            
     e(237 -237) =      1.73397  eV     1   --> G_4            
     e(238 -238) =      1.73712  eV     1   --> G_3            
     e(239 -240) =      1.87978  eV     2   --> G_3            
     e(239 -240) =      1.87978  eV     2   --> G_4            
     e(241 -241) =      1.88579  eV     1   --> G_4            
     e(242 -242) =      1.88906  eV     1   --> G_3            
     e(243 -243) =      1.99461  eV     1   --> G_4            
     e(244 -244) =      1.99674  eV     1   --> G_3            
     e(245 -245) =      2.07821  eV     1   --> G_4            
     e(246 -246) =      2.08389  eV     1   --> G_4            
     e(247 -247) =      2.08544  eV     1   --> G_3            
     e(248 -248) =      2.08683  eV     1   --> G_3            
     e(249 -249) =      2.14437  eV     1   --> G_4            
     e(250 -250) =      2.14589  eV     1   --> G_3            
     e(251 -251) =      2.16133  eV     1   --> G_3            
     e(252 -252) =      2.16267  eV     1   --> G_4            
     e(253 -253) =      2.18065  eV     1   --> G_3            
     e(254 -254) =      2.18337  eV     1   --> G_4            
     e(255 -255) =      2.21922  eV     1   --> G_3            
     e(256 -256) =      2.22424  eV     1   --> G_4            
     e(257 -257) =      2.22815  eV     1   --> G_3            
     e(258 -258) =      2.23358  eV     1   --> G_4            
     e(259 -259) =      2.30524  eV     1   --> G_3            
     e(260 -260) =      2.31063  eV     1   --> G_4            
     e(261 -261) =      2.33036  eV     1   --> G_4            
     e(262 -262) =      2.33098  eV     1   --> G_3            
     e(263 -263) =      2.35555  eV     1   --> G_3            
     e(264 -264) =      2.38000  eV     1   --> G_4            
     e(265 -265) =      2.41797  eV     1   --> G_4            
     e(266 -266) =      2.44214  eV     1   --> G_3            
     e(267 -267) =      2.47098  eV     1   --> G_4            
     e(268 -268) =      2.47391  eV     1   --> G_3            
     e(269 -269) =      2.52448  eV     1   --> G_4            
     e(270 -270) =      2.53101  eV     1   --> G_3            
     e(271 -271) =      2.55029  eV     1   --> G_3            
     e(272 -272) =      2.55087  eV     1   --> G_4            

 **************************************************************************

 **************************************************************************

                    xk=(   0.28868,   0.50000,   0.00000  )

     double point group C_2v (mm2) 
     there are  5 classes and  1 irreducible representations
     the character table:

       E     -E     C2    s_v   s_v'
                   -C2   -s_v  -s_v'
G_5    2.00 -2.00  0.00  0.00  0.00

     the symmetry operations in each class and the name of the first element:

     E             1
                                                                 
     -E           -1
                                                                 
      C2  -C2      2   -2
                                                                 
      s_v -s_v     3   -3
                                                                 
      s_v'-s_v'    4   -4
                                                                 

     Band symmetry, C_2v (mm2)  double point group:

     e(  1 -  2) =    -55.52791  eV     2   --> G_5  D_5       
     e(  3 -  4) =    -55.52031  eV     2   --> G_5  D_5       
     e(  5 -  6) =    -55.51983  eV     2   --> G_5  D_5       
     e(  7 -  8) =    -55.46896  eV     2   --> G_5  D_5       
     e(  9 - 10) =    -55.46146  eV     2   --> G_5  D_5       
     e( 11 - 12) =    -55.45932  eV     2   --> G_5  D_5       
     e( 13 - 14) =    -55.45231  eV     2   --> G_5  D_5       
     e( 15 - 16) =    -55.44770  eV     2   --> G_5  D_5       
     e( 17 - 18) =    -55.44570  eV     2   --> G_5  D_5       
     e( 19 - 20) =    -33.01275  eV     2   --> G_5  D_5       
     e( 21 - 22) =    -33.00699  eV     2   --> G_5  D_5       
     e( 23 - 24) =    -32.99345  eV     2   --> G_5  D_5       
     e( 25 - 26) =    -32.96182  eV     2   --> G_5  D_5       
     e( 27 - 28) =    -32.95348  eV     2   --> G_5  D_5       
     e( 29 - 30) =    -32.94437  eV     2   --> G_5  D_5       
     e( 31 - 32) =    -32.93105  eV     2   --> G_5  D_5       
     e( 33 - 34) =    -32.90460  eV     2   --> G_5  D_5       
     e( 35 - 36) =    -32.89128  eV     2   --> G_5  D_5       
     e( 37 - 38) =    -30.98998  eV     2   --> G_5  D_5       
     e( 39 - 40) =    -30.97983  eV     2   --> G_5  D_5       
     e( 41 - 42) =    -30.95740  eV     2   --> G_5  D_5       
     e( 43 - 44) =    -30.94346  eV     2   --> G_5  D_5       
     e( 45 - 46) =    -30.93041  eV     2   --> G_5  D_5       
     e( 47 - 48) =    -30.91827  eV     2   --> G_5  D_5       
     e( 49 - 50) =    -30.90528  eV     2   --> G_5  D_5       
     e( 51 - 52) =    -30.88252  eV     2   --> G_5  D_5       
     e( 53 - 54) =    -30.87307  eV     2   --> G_5  D_5       
     e( 55 - 56) =    -30.86601  eV     2   --> G_5  D_5       
     e( 57 - 58) =    -30.84959  eV     2   --> G_5  D_5       
     e( 59 - 60) =    -30.83738  eV     2   --> G_5  D_5       
     e( 61 - 62) =    -30.82634  eV     2   --> G_5  D_5       
     e( 63 - 64) =    -30.81359  eV     2   --> G_5  D_5       
     e( 65 - 66) =    -30.81204  eV     2   --> G_5  D_5       
     e( 67 - 68) =    -30.80310  eV     2   --> G_5  D_5       
     e( 69 - 70) =    -30.77645  eV     2   --> G_5  D_5       
     e( 71 - 72) =    -30.76342  eV     2   --> G_5  D_5       
     e( 73 - 74) =    -13.77089  eV     2   --> G_5  D_5       
     e( 75 - 76) =    -13.74646  eV     2   --> G_5  D_5       
     e( 77 - 78) =    -13.28585  eV     2   --> G_5  D_5       
     e( 79 - 80) =    -13.27340  eV     2   --> G_5  D_5       
     e( 81 - 82) =    -13.01232  eV     2   --> G_5  D_5       
     e( 83 - 84) =    -12.94142  eV     2   --> G_5  D_5       
     e( 85 - 86) =    -12.77536  eV     2   --> G_5  D_5       
     e( 87 - 88) =    -12.74523  eV     2   --> G_5  D_5       
     e( 89 - 90) =    -12.73579  eV     2   --> G_5  D_5       
     e( 91 - 92) =    -12.72185  eV     2   --> G_5  D_5       
     e( 93 - 94) =    -12.72020  eV     2   --> G_5  D_5       
     e( 95 - 96) =    -12.71418  eV     2   --> G_5  D_5       
     e( 97 - 98) =    -12.70853  eV     2   --> G_5  D_5       
     e( 99 -100) =    -12.54636  eV     2   --> G_5  D_5       
     e(101 -102) =    -12.53897  eV     2   --> G_5  D_5       
     e(103 -104) =    -12.51212  eV     2   --> G_5  D_5       
     e(105 -106) =    -12.43654  eV     2   --> G_5  D_5       
     e(107 -108) =    -12.40528  eV     2   --> G_5  D_5       
     e(109 -110) =     -5.44373  eV     2   --> G_5  D_5       
     e(111 -112) =     -5.04374  eV     2   --> G_5  D_5       
     e(113 -114) =     -5.01611  eV     2   --> G_5  D_5       
     e(115 -116) =     -4.97667  eV     2   --> G_5  D_5       
     e(117 -118) =     -4.96516  eV     2   --> G_5  D_5       
     e(119 -120) =     -4.95289  eV     2   --> G_5  D_5       
     e(121 -122) =     -4.90934  eV     2   --> G_5  D_5       
     e(123 -124) =     -4.56018  eV     2   --> G_5  D_5       
     e(125 -126) =     -4.53799  eV     2   --> G_5  D_5       
     e(127 -128) =     -4.52090  eV     2   --> G_5  D_5       
     e(129 -130) =     -4.51346  eV     2   --> G_5  D_5       
     e(131 -132) =     -4.48428  eV     2   --> G_5  D_5       
     e(133 -134) =     -4.43587  eV     2   --> G_5  D_5       
     e(135 -136) =     -4.40931  eV     2   --> G_5  D_5       
     e(137 -138) =     -3.99136  eV     2   --> G_5  D_5       
     e(139 -140) =     -3.96749  eV     2   --> G_5  D_5       
     e(141 -142) =     -3.84850  eV     2   --> G_5  D_5       
     e(143 -144) =     -3.79291  eV     2   --> G_5  D_5       
     e(145 -146) =     -3.78256  eV     2   --> G_5  D_5       
     e(147 -148) =     -3.76987  eV     2   --> G_5  D_5       
     e(149 -150) =     -3.73292  eV     2   --> G_5  D_5       
     e(151 -152) =     -3.48820  eV     2   --> G_5  D_5       
     e(153 -154) =     -3.37497  eV     2   --> G_5  D_5       
     e(155 -156) =     -3.24724  eV     2   --> G_5  D_5       
     e(157 -158) =     -3.12217  eV     2   --> G_5  D_5       
     e(159 -160) =     -3.10417  eV     2   --> G_5  D_5       
     e(161 -162) =     -3.06426  eV     2   --> G_5  D_5       
     e(163 -164) =     -3.00345  eV     2   --> G_5  D_5       
     e(165 -166) =     -2.94192  eV     2   --> G_5  D_5       
     e(167 -168) =     -2.90309  eV     2   --> G_5  D_5       
     e(169 -170) =     -2.85395  eV     2   --> G_5  D_5       
     e(171 -172) =     -2.78487  eV     2   --> G_5  D_5       
     e(173 -174) =     -2.69716  eV     2   --> G_5  D_5       
     e(175 -176) =     -2.58287  eV     2   --> G_5  D_5       
     e(177 -178) =     -2.54417  eV     2   --> G_5  D_5       
     e(179 -180) =     -2.51776  eV     2   --> G_5  D_5       
     e(181 -182) =     -2.47091  eV     2   --> G_5  D_5       
     e(183 -184) =     -2.43485  eV     2   --> G_5  D_5       
     e(185 -186) =     -2.10234  eV     2   --> G_5  D_5       
     e(187 -188) =     -2.03402  eV     2   --> G_5  D_5       
     e(189 -190) =     -2.01053  eV     2   --> G_5  D_5       
     e(191 -192) =     -1.98599  eV     2   --> G_5  D_5       
     e(193 -194) =     -1.96140  eV     2   --> G_5  D_5       
     e(195 -196) =     -1.88458  eV     2   --> G_5  D_5       
     e(197 -198) =     -1.87379  eV     2   --> G_5  D_5       
     e(199 -200) =     -1.84855  eV     2   --> G_5  D_5       
     e(201 -202) =     -1.76588  eV     2   --> G_5  D_5       
     e(203 -204) =     -1.69349  eV     2   --> G_5  D_5       
     e(205 -206) =     -1.67659  eV     2   --> G_5  D_5       
     e(207 -208) =     -1.40836  eV     2   --> G_5  D_5       
     e(209 -210) =     -1.32492  eV     2   --> G_5  D_5       
     e(211 -212) =     -1.27519  eV     2   --> G_5  D_5       
     e(213 -214) =     -1.26803  eV     2   --> G_5  D_5       
     e(215 -216) =     -1.18763  eV     2   --> G_5  D_5       
     e(217 -218) =     -0.65572  eV     2   --> G_5  D_5       
     e(219 -220) =     -0.62551  eV     2   --> G_5  D_5       
     e(221 -222) =     -0.54061  eV     2   --> G_5  D_5       
     e(223 -224) =     -0.51524  eV     2   --> G_5  D_5       
     e(225 -226) =     -0.34562  eV     2   --> G_5  D_5       
     e(227 -228) =     -0.20390  eV     2   --> G_5  D_5       
     e(229 -230) =     -0.17747  eV     2   --> G_5  D_5       
     e(231 -232) =     -0.11749  eV     2   --> G_5  D_5       
     e(233 -234) =     -0.08436  eV     2   --> G_5  D_5       
     e(235 -236) =      1.70811  eV     2   --> G_5  D_5       
     e(237 -238) =      1.73520  eV     2   --> G_5  D_5       
     e(239 -240) =      1.87962  eV     2   --> G_5  D_5       
     e(241 -242) =      1.88699  eV     2   --> G_5  D_5       
     e(243 -244) =      1.99542  eV     2   --> G_5  D_5       
     e(245 -246) =      2.08155  eV     2   --> G_5  D_5       
     e(247 -248) =      2.08552  eV     2   --> G_5  D_5       
     e(249 -250) =      2.14485  eV     2   --> G_5  D_5       
     e(251 -252) =      2.16189  eV     2   --> G_5  D_5       
     e(253 -254) =      2.18200  eV     2   --> G_5  D_5       
     e(255 -256) =      2.22114  eV     2   --> G_5  D_5       
     e(257 -258) =      2.23079  eV     2   --> G_5  D_5       
     e(259 -260) =      2.30755  eV     2   --> G_5  D_5       
     e(261 -262) =      2.32958  eV     2   --> G_5  D_5       
     e(263 -264) =      2.36607  eV     2   --> G_5  D_5       
     e(265 -266) =      2.42833  eV     2   --> G_5  D_5       
     e(267 -268) =      2.47211  eV     2   --> G_5  D_5       
     e(269 -270) =      2.52857  eV     2   --> G_5  D_5       
     e(271 -272) =      2.54869  eV     2   --> G_5  D_5       

 **************************************************************************
 
     BANDS        :  59m 0.50s CPU      1h24m WALL

 
   This run was terminated on:   4:42:23   6Sep2020            

=------------------------------------------------------------------------------=
   JOB DONE.
=------------------------------------------------------------------------------=
