
     Program PWSCF v.6.6 starts on  7Dec2020 at 23:40:20 

     This program is part of the open-source Quantum ESPRESSO suite
     for quantum simulation of materials; please cite
         "P. Giannozzi et al., J. Phys.:Condens. Matter 21 395502 (2009);
         "P. Giannozzi et al., J. Phys.:Condens. Matter 29 465901 (2017);
          URL http://www.quantum-espresso.org", 
     in publications or presentations arising from this work. More details at
     http://www.quantum-espresso.org/quote

     Parallel version (MPI), running on     8 processors

     MPI processes distributed on     1 nodes
     R & G space division:  proc/nbgrp/npool/nimage =       8
     Fft bands division:     nmany     =       1
     Reading input from bands.in

     Current dimensions of program PWSCF are:
     Max number of different atomic species (ntypx) = 10
     Max number of k-points (npk) =  40000
     Max angular momentum in pseudopotentials (lmaxx) =  3

     Atomic positions and unit cell read from directory:
     ./outdir/nbse2.save/
     Atomic positions from file used, from input discarded
 
     file Se.rel-pbe-n-kjpaw_psl.0.2.UPF: wavefunction(s)  4S 4P renormalized
     file Nb.rel-pbe-spn-kjpaw_psl.1.0.0.UPF: wavefunction(s)  4S 4P 4P 4D renormalized

     Subspace diagonalization in iterative solution of the eigenvalue problem:
     a serial algorithm will be used

 
     Parallelization info
     --------------------
     sticks:   dense  smooth     PW     G-vecs:    dense   smooth      PW
     Min          82      82     24                11524    11524    1840
     Max          83      83     25                11541    11541    1859
     Sum         661     661    199                92285    92285   14831
 


     bravais-lattice index     =            4
     lattice parameter (alat)  =       6.5940  a.u.
     unit-cell volume          =    1662.8322 (a.u.)^3
     number of atoms/cell      =            3
     number of atomic types    =            2
     number of electrons       =        25.00
     number of Kohn-Sham states=           42
     kinetic-energy cutoff     =      55.2247  Ry
     charge density cutoff     =     220.8988  Ry
     Exchange-correlation= SLA PW PBX PBC
                           (   1   4   3   4   0   0   0)
     Non magnetic calculation with spin-orbit


     celldm(1)=   6.594010  celldm(2)=   0.000000  celldm(3)=   6.696825
     celldm(4)=   0.000000  celldm(5)=   0.000000  celldm(6)=   0.000000

     crystal axes: (cart. coord. in units of alat)
               a(1) = (   1.000000   0.000000   0.000000 )  
               a(2) = (  -0.500000   0.866025   0.000000 )  
               a(3) = (   0.000000   0.000000   6.696825 )  

     reciprocal axes: (cart. coord. in units 2 pi/alat)
               b(1) = (  1.000000  0.577350  0.000000 )  
               b(2) = (  0.000000  1.154701  0.000000 )  
               b(3) = (  0.000000  0.000000  0.149325 )  


     PseudoPot. # 1 for Se read from file:
     ../Pseudos/Se.rel-pbe-n-kjpaw_psl.0.2.UPF
     MD5 check sum: 45c28741602d7a872c405fe9dd485dc8
     Pseudo is Projector augmented-wave + core cor, Zval =  6.0
     Generated using "atomic" code by A. Dal Corso v.5.0.2 svn rev. 9415
     Shape of augmentation charge: PSQ
     Using radial grid of 1211 points,  6 beta functions with: 
                l(1) =   0
                l(2) =   0
                l(3) =   1
                l(4) =   1
                l(5) =   1
                l(6) =   1
     Q(r) pseudized with 0 coefficients 


     PseudoPot. # 2 for Nb read from file:
     ../Pseudos/Nb.rel-pbe-spn-kjpaw_psl.1.0.0.UPF
     MD5 check sum: 2306cb666db741a7975d44936f4113f9
     Pseudo is Projector augmented-wave + core cor, Zval = 13.0
     Generated using "atomic" code by A. Dal Corso v.6.2.2
     Shape of augmentation charge: PSQ
     Using radial grid of 1227 points, 10 beta functions with: 
                l(1) =   0
                l(2) =   0
                l(3) =   1
                l(4) =   1
                l(5) =   1
                l(6) =   1
                l(7) =   2
                l(8) =   2
                l(9) =   2
               l(10) =   2
     Q(r) pseudized with 0 coefficients 


     atomic species   valence    mass     pseudopotential
        Se             6.00    78.96000     Se( 1.00)
        Nb            13.00    92.90638     Nb( 1.00)

     12 Sym. Ops. (no inversion) found



   Cartesian axes

     site n.     atom                  positions (alat units)
         1           Se  tau(   1) = (   0.0000000   0.5773508   3.8310119  )
         2           Nb  tau(   2) = (   0.0000000   0.0000000   3.3484172  )
         3           Se  tau(   3) = (   0.0000000   0.5773508   2.8658222  )

     number of k points=    61  Gaussian smearing, width (Ry)=  0.0100
                       cart. coord. in units 2pi/alat
        k(    1) = (   0.0000000   0.5773503   0.0000000), wk =   0.0163934
        k(    2) = (   0.0000000   0.5484828   0.0000000), wk =   0.0163934
        k(    3) = (   0.0000000   0.5196152   0.0000000), wk =   0.0163934
        k(    4) = (   0.0000000   0.4907477   0.0000000), wk =   0.0163934
        k(    5) = (   0.0000000   0.4618802   0.0000000), wk =   0.0163934
        k(    6) = (   0.0000000   0.4330127   0.0000000), wk =   0.0163934
        k(    7) = (   0.0000000   0.4041452   0.0000000), wk =   0.0163934
        k(    8) = (   0.0000000   0.3752777   0.0000000), wk =   0.0163934
        k(    9) = (   0.0000000   0.3464102   0.0000000), wk =   0.0163934
        k(   10) = (   0.0000000   0.3175426   0.0000000), wk =   0.0163934
        k(   11) = (   0.0000000   0.2886751   0.0000000), wk =   0.0163934
        k(   12) = (   0.0000000   0.2598076   0.0000000), wk =   0.0163934
        k(   13) = (   0.0000000   0.2309401   0.0000000), wk =   0.0163934
        k(   14) = (   0.0000000   0.2020726   0.0000000), wk =   0.0163934
        k(   15) = (   0.0000000   0.1732051   0.0000000), wk =   0.0163934
        k(   16) = (   0.0000000   0.1443376   0.0000000), wk =   0.0163934
        k(   17) = (   0.0000000   0.1154701   0.0000000), wk =   0.0163934
        k(   18) = (   0.0000000   0.0866025   0.0000000), wk =   0.0163934
        k(   19) = (   0.0000000   0.0577350   0.0000000), wk =   0.0163934
        k(   20) = (   0.0000000   0.0288675   0.0000000), wk =   0.0163934
        k(   21) = (   0.0000000   0.0000000   0.0000000), wk =   0.0163934
        k(   22) = (  -0.0166667   0.0288675   0.0000000), wk =   0.0163934
        k(   23) = (  -0.0333333   0.0577350   0.0000000), wk =   0.0163934
        k(   24) = (  -0.0500000   0.0866025   0.0000000), wk =   0.0163934
        k(   25) = (  -0.0666667   0.1154701   0.0000000), wk =   0.0163934
        k(   26) = (  -0.0833333   0.1443376   0.0000000), wk =   0.0163934
        k(   27) = (  -0.1000000   0.1732051   0.0000000), wk =   0.0163934
        k(   28) = (  -0.1166667   0.2020726   0.0000000), wk =   0.0163934
        k(   29) = (  -0.1333333   0.2309401   0.0000000), wk =   0.0163934
        k(   30) = (  -0.1500000   0.2598076   0.0000000), wk =   0.0163934
        k(   31) = (  -0.1666667   0.2886751   0.0000000), wk =   0.0163934
        k(   32) = (  -0.1833333   0.3175426   0.0000000), wk =   0.0163934
        k(   33) = (  -0.2000000   0.3464102   0.0000000), wk =   0.0163934
        k(   34) = (  -0.2166667   0.3752777   0.0000000), wk =   0.0163934
        k(   35) = (  -0.2333333   0.4041452   0.0000000), wk =   0.0163934
        k(   36) = (  -0.2500000   0.4330127   0.0000000), wk =   0.0163934
        k(   37) = (  -0.2666667   0.4618802   0.0000000), wk =   0.0163934
        k(   38) = (  -0.2833333   0.4907477   0.0000000), wk =   0.0163934
        k(   39) = (  -0.3000000   0.5196152   0.0000000), wk =   0.0163934
        k(   40) = (  -0.3166667   0.5484828   0.0000000), wk =   0.0163934
        k(   41) = (  -0.3333333   0.5773503   0.0000000), wk =   0.0163934
        k(   42) = (  -0.3166667   0.5773503   0.0000000), wk =   0.0163934
        k(   43) = (  -0.3000000   0.5773503   0.0000000), wk =   0.0163934
        k(   44) = (  -0.2833333   0.5773503   0.0000000), wk =   0.0163934
        k(   45) = (  -0.2666667   0.5773503   0.0000000), wk =   0.0163934
        k(   46) = (  -0.2500000   0.5773503   0.0000000), wk =   0.0163934
        k(   47) = (  -0.2333333   0.5773503   0.0000000), wk =   0.0163934
        k(   48) = (  -0.2166667   0.5773503   0.0000000), wk =   0.0163934
        k(   49) = (  -0.2000000   0.5773503   0.0000000), wk =   0.0163934
        k(   50) = (  -0.1833333   0.5773503   0.0000000), wk =   0.0163934
        k(   51) = (  -0.1666667   0.5773503   0.0000000), wk =   0.0163934
        k(   52) = (  -0.1500000   0.5773503   0.0000000), wk =   0.0163934
        k(   53) = (  -0.1333333   0.5773503   0.0000000), wk =   0.0163934
        k(   54) = (  -0.1166667   0.5773503   0.0000000), wk =   0.0163934
        k(   55) = (  -0.1000000   0.5773503   0.0000000), wk =   0.0163934
        k(   56) = (  -0.0833333   0.5773503   0.0000000), wk =   0.0163934
        k(   57) = (  -0.0666667   0.5773503   0.0000000), wk =   0.0163934
        k(   58) = (  -0.0500000   0.5773503   0.0000000), wk =   0.0163934
        k(   59) = (  -0.0333333   0.5773503   0.0000000), wk =   0.0163934
        k(   60) = (  -0.0166667   0.5773503   0.0000000), wk =   0.0163934
        k(   61) = (   0.0000000   0.5773503   0.0000000), wk =   0.0163934

     Dense  grid:    92285 G-vectors     FFT dimensions: (  32,  32, 216)

     Estimated max dynamical RAM per process >     125.03 MB

     Estimated total dynamical RAM >    1000.25 MB

     The potential is recalculated from file :
     ./outdir/nbse2.save/charge-density


     negative rho (up, down):  3.446E-03 0.000E+00
     Starting wfcs are   42 randomized atomic wfcs
     Checking if some PAW data can be deallocated... 

     Band Structure Calculation
     Davidson diagonalization with overlap

     ethr =  4.00E-09,  avg # of iterations = 35.2

     total cpu time spent up to now is      508.6 secs

     End of band structure calculation

          k = 0.0000 0.5774 0.0000 ( 11542 PWs)   bands (ev):

   -56.6463 -56.6463 -34.2079 -34.2079 -32.1748 -32.1748 -32.0314 -32.0314
   -13.7928 -13.7928 -13.5714 -13.5714  -6.5293  -6.5293  -5.6141  -5.6141
    -4.9584  -4.9584  -3.9665  -3.9665  -3.0404  -3.0404  -2.3455  -2.3455
    -1.8053  -1.8053   0.8323   0.8323   1.2458   1.2458   2.1425   2.1425
     2.6904   2.6904   3.9677   3.9677   5.5997   5.5997   5.8394   5.8394
     6.5495   6.5495

          k = 0.0000 0.5485 0.0000 ( 11536 PWs)   bands (ev):

   -56.6464 -56.6464 -34.2074 -34.2074 -32.1738 -32.1738 -32.0314 -32.0314
   -13.8029 -13.8028 -13.5758 -13.5757  -6.5136  -6.5136  -5.5993  -5.5993
    -4.9597  -4.9597  -3.9599  -3.9599  -3.0376  -3.0376  -2.3508  -2.3508
    -1.8157  -1.8157   0.8294   0.8294   1.2359   1.2359   2.1320   2.1320
     2.6859   2.6859   4.0089   4.0089   5.5737   5.5738   5.8287   5.8287
     6.4948   6.4949

          k = 0.0000 0.5196 0.0000 ( 11538 PWs)   bands (ev):

   -56.6467 -56.6467 -34.2061 -34.2061 -32.1709 -32.1709 -32.0315 -32.0315
   -13.8327 -13.8326 -13.5887 -13.5886  -6.4672  -6.4671  -5.5555  -5.5554
    -4.9641  -4.9641  -3.9401  -3.9401  -3.0291  -3.0291  -2.3667  -2.3667
    -1.8440  -1.8440   0.8212   0.8212   1.2076   1.2076   2.1004   2.1005
     2.6721   2.6721   4.1278   4.1278   5.5005   5.5006   5.7929   5.7929
     6.3643   6.3644

          k = 0.0000 0.4907 0.0000 ( 11550 PWs)   bands (ev):

   -56.6474 -56.6474 -34.2039 -34.2039 -32.1661 -32.1661 -32.0317 -32.0317
   -13.8808 -13.8806 -13.6096 -13.6095  -6.3918  -6.3918  -5.4837  -5.4836
    -4.9735  -4.9735  -3.9074  -3.9074  -3.0147  -3.0146  -2.3932  -2.3932
    -1.8827  -1.8826   0.8099   0.8100   1.1648   1.1648   2.0478   2.0479
     2.6489   2.6489   4.3112   4.3113   5.3923   5.3923   5.7150   5.7151
     6.1890   6.1891

          k = 0.0000 0.4619 0.0000 ( 11546 PWs)   bands (ev):

   -56.6481 -56.6481 -34.2008 -34.2008 -32.1595 -32.1595 -32.0319 -32.0319
   -13.9452 -13.9450 -13.6377 -13.6376  -6.2909  -6.2908  -5.3861  -5.3859
    -4.9900  -4.9899  -3.8620  -3.8620  -2.9941  -2.9940  -2.4300  -2.4300
    -1.9209  -1.9209   0.7988   0.7988   1.1118   1.1118   1.9747   1.9747
     2.6158   2.6159   4.5350   4.5351   5.2679   5.2680   5.5712   5.5713
     5.8837   5.8837

          k = 0.0000 0.4330 0.0000 ( 11536 PWs)   bands (ev):

   -56.6491 -56.6491 -34.1970 -34.1970 -32.1513 -32.1513 -32.0322 -32.0322
   -14.0232 -14.0231 -13.6721 -13.6719  -6.1689  -6.1688  -5.2663  -5.2660
    -5.0140  -5.0139  -3.8044  -3.8044  -2.9672  -2.9671  -2.4762  -2.4762
    -1.9475  -1.9475   0.7912   0.7913   1.0528   1.0529   1.8825   1.8826
     2.5725   2.5725   4.7355   4.7356   5.1795   5.1796   5.3707   5.3707
     5.6046   5.6046

          k = 0.0000 0.4041 0.0000 ( 11516 PWs)   bands (ev):

   -56.6502 -56.6502 -34.1927 -34.1927 -32.1417 -32.1417 -32.0325 -32.0325
   -14.1122 -14.1120 -13.7114 -13.7113  -6.0330  -6.0329  -5.1388  -5.1381
    -5.0334  -5.0330  -3.7352  -3.7351  -2.9347  -2.9346  -2.5300  -2.5300
    -1.9527  -1.9526   0.7907   0.7907   0.9916   0.9917   1.7742   1.7742
     2.5184   2.5184   4.7433   4.7433   5.1447   5.1447   5.2447   5.2447
     5.3900   5.3901

          k = 0.0000 0.3753 0.0000 ( 11510 PWs)   bands (ev):

   -56.6514 -56.6514 -34.1878 -34.1878 -32.1309 -32.1309 -32.0327 -32.0327
   -14.2089 -14.2087 -13.7545 -13.7544  -5.8956  -5.8953  -5.1068  -5.1062
    -4.9401  -4.9399  -3.6550  -3.6550  -2.8992  -2.8991  -2.5872  -2.5871
    -1.9298  -1.9298   0.7997   0.7997   0.9319   0.9320   1.6539   1.6540
     2.4529   2.4529   4.5951   4.5952   4.9140   4.9141   5.0912   5.0912
     5.5469   5.5469

          k = 0.0000 0.3464 0.0000 ( 11516 PWs)   bands (ev):

   -56.6529 -56.6529 -34.1826 -34.1826 -32.1192 -32.1192 -32.0329 -32.0329
   -14.3105 -14.3103 -13.8001 -13.7999  -5.7798  -5.7796  -5.1155  -5.1152
    -4.7721  -4.7721  -3.5648  -3.5648  -2.8706  -2.8705  -2.6363  -2.6362
    -1.8769  -1.8768   0.8190   0.8190   0.8781   0.8783   1.5271   1.5272
     2.3760   2.3760   4.4096   4.4097   4.6887   4.6888   4.8836   4.8836
     5.7135   5.7137

          k = 0.0000 0.3175 0.0000 ( 11500 PWs)   bands (ev):

   -56.6543 -56.6543 -34.1771 -34.1771 -32.1069 -32.1068 -32.0329 -32.0329
   -14.4141 -14.4140 -13.8468 -13.8466  -5.7225  -5.7223  -5.0727  -5.0724
    -4.5898  -4.5897  -3.4658  -3.4658  -2.8738  -2.8737  -2.6510  -2.6510
    -1.7960  -1.7959   0.8236   0.8237   0.8601   0.8602   1.4001   1.4002
     2.2878   2.2879   4.2177   4.2178   4.4741   4.4742   4.6890   4.6890
     5.5354   5.5354

          k = 0.0000 0.2887 0.0000 ( 11488 PWs)   bands (ev):

   -56.6557 -56.6557 -34.1716 -34.1716 -32.0943 -32.0943 -32.0328 -32.0328
   -14.5171 -14.5170 -13.8934 -13.8933  -5.7410  -5.7408  -4.9556  -4.9554
    -4.4015  -4.4014  -3.3595  -3.3595  -2.9218  -2.9218  -2.6174  -2.6174
    -1.6929  -1.6928   0.7937   0.7939   0.9014   0.9014   1.2802   1.2803
     2.1891   2.1891   4.0305   4.0306   4.2733   4.2734   4.5070   4.5070
     5.3518   5.3518

          k = 0.0000 0.2598 0.0000 ( 11495 PWs)   bands (ev):

   -56.6573 -56.6573 -34.1661 -34.1661 -32.0820 -32.0820 -32.0323 -32.0323
   -14.6172 -14.6171 -13.9389 -13.9388  -5.8110  -5.8108  -4.7863  -4.7862
    -4.2123  -4.2121  -3.2476  -3.2476  -2.9930  -2.9930  -2.5576  -2.5576
    -1.5760  -1.5758   0.7787   0.7789   0.9551   0.9552   1.1756   1.1757
     2.0812   2.0813   3.8535   3.8536   4.0882   4.0883   4.3362   4.3363
     5.1784   5.1784

          k = 0.0000 0.2309 0.0000 ( 11471 PWs)   bands (ev):

   -56.6587 -56.6587 -34.1608 -34.1608 -32.0704 -32.0704 -32.0312 -32.0312
   -14.7122 -14.7121 -13.9821 -13.9820  -5.9042  -5.9041  -4.5919  -4.5919
    -4.0260  -4.0258  -3.1329  -3.1328  -3.0703  -3.0701  -2.4906  -2.4905
    -1.4548  -1.4546   0.7860   0.7862   1.0108   1.0108   1.0999   1.1000
     1.9665   1.9665   3.6894   3.6896   3.9200   3.9201   4.1752   4.1752
     5.0185   5.0185

          k = 0.0000 0.2021 0.0000 ( 11511 PWs)   bands (ev):

   -56.6602 -56.6602 -34.1559 -34.1559 -32.0606 -32.0606 -32.0289 -32.0289
   -14.8003 -14.8002 -14.0223 -14.0222  -6.0041  -6.0040  -4.3889  -4.3889
    -3.8459  -3.8457  -3.1478  -3.1477  -3.0160  -3.0159  -2.4277  -2.4277
    -1.3389  -1.3387   0.8195   0.8197   1.0159   1.0159   1.1096   1.1097
     1.8479   1.8479   3.5396   3.5398   3.7695   3.7696   4.0221   4.0221
     4.8735   4.8735

          k = 0.0000 0.1732 0.0000 ( 11517 PWs)   bands (ev):

   -56.6615 -56.6615 -34.1513 -34.1513 -32.0532 -32.0532 -32.0250 -32.0250
   -14.8798 -14.8797 -14.0586 -14.0586  -6.1013  -6.1012  -4.1881  -4.1880
    -3.6751  -3.6749  -3.2175  -3.2174  -2.9032  -2.9031  -2.3782  -2.3781
    -1.2364  -1.2362   0.8807   0.8808   1.0007   1.0008   1.1766   1.1767
     1.7298   1.7298   3.4039   3.4040   3.6374   3.6375   3.8740   3.8740
     4.7158   4.7159

          k = 0.0000 0.1443 0.0000 ( 11527 PWs)   bands (ev):

   -56.6627 -56.6627 -34.1473 -34.1473 -32.0486 -32.0486 -32.0195 -32.0195
   -14.9494 -14.9493 -14.0904 -14.0904  -6.1902  -6.1901  -3.9980  -3.9979
    -3.5193  -3.5191  -3.2737  -3.2735  -2.7975  -2.7975  -2.3486  -2.3485
    -1.1525  -1.1523   0.9659   0.9660   1.0165   1.0165   1.2484   1.2486
     1.6175   1.6176   3.2805   3.2806   3.5241   3.5242   3.7276   3.7276
     4.4757   4.4757

          k = 0.0000 0.1155 0.0000 ( 11529 PWs)   bands (ev):

   -56.6637 -56.6637 -34.1439 -34.1439 -32.0461 -32.0461 -32.0133 -32.0133
   -15.0078 -15.0078 -14.1172 -14.1171  -6.2669  -6.2669  -3.8273  -3.8272
    -3.4126  -3.4125  -3.2810  -3.2807  -2.7047  -2.7046  -2.3416  -2.3416
    -1.0887  -1.0885   1.0475   1.0476   1.0817   1.0819   1.3173   1.3174
     1.5188   1.5189   3.1656   3.1658   3.4300   3.4301   3.5822   3.5822
     4.2661   4.2661

          k = 0.0000 0.0866 0.0000 ( 11525 PWs)   bands (ev):

   -56.6645 -56.6645 -34.1412 -34.1412 -32.0447 -32.0447 -32.0076 -32.0076
   -15.0542 -15.0542 -14.1384 -14.1384  -6.3289  -6.3289  -3.6850  -3.6848
    -3.4117  -3.4117  -3.1827  -3.1824  -2.6324  -2.6324  -2.3534  -2.3534
    -1.0437  -1.0436   1.1062   1.1063   1.1881   1.1884   1.3745   1.3747
     1.4490   1.4492   3.0539   3.0540   3.3554   3.3555   3.4474   3.4474
     4.1058   4.1059

          k = 0.0000 0.0577 0.0000 ( 11531 PWs)   bands (ev):

   -56.6651 -56.6651 -34.1392 -34.1392 -32.0440 -32.0440 -32.0031 -32.0031
   -15.0879 -15.0879 -14.1538 -14.1538  -6.3744  -6.3744  -3.5817  -3.5816
    -3.4292  -3.4292  -3.0678  -3.0676  -2.5913  -2.5912  -2.3716  -2.3716
    -1.0147  -1.0146   1.1522   1.1523   1.2827   1.2828   1.3771   1.3772
     1.4628   1.4628   2.9455   2.9456   3.3009   3.3011   3.3421   3.3422
     3.9980   3.9980

          k = 0.0000 0.0289 0.0000 ( 11557 PWs)   bands (ev):

   -56.6655 -56.6655 -34.1380 -34.1380 -32.0437 -32.0437 -32.0003 -32.0003
   -15.1083 -15.1083 -14.1631 -14.1631  -6.4021  -6.4021  -3.5290  -3.5289
    -3.4298  -3.4298  -2.9784  -2.9782  -2.5856  -2.5856  -2.3811  -2.3811
    -0.9987  -0.9986   1.1706   1.1706   1.3429   1.3430   1.3717   1.3717
     1.5106   1.5106   2.8588   2.8588   3.2676   3.2678   3.2789   3.2791
     3.9371   3.9371

          k = 0.0000 0.0000 0.0000 ( 11535 PWs)   bands (ev):

   -56.6655 -56.6655 -34.1376 -34.1376 -32.0436 -32.0436 -31.9993 -31.9993
   -15.1151 -15.1151 -14.1663 -14.1663  -6.4114  -6.4114  -3.5174  -3.5174
    -3.4238  -3.4238  -2.9424  -2.9424  -2.5915  -2.5915  -2.3823  -2.3823
    -0.9936  -0.9936   1.1726   1.1726   1.3624   1.3624   1.3750   1.3750
     1.5321   1.5321   2.8246   2.8246   3.2566   3.2566   3.2584   3.2584
     3.9174   3.9174

          k =-0.0167 0.0289 0.0000 ( 11547 PWs)   bands (ev):

   -56.6654 -56.6654 -34.1381 -34.1381 -32.0437 -32.0437 -32.0006 -32.0006
   -15.1060 -15.1060 -14.1621 -14.1621  -6.3990  -6.3990  -3.5341  -3.5334
    -3.4312  -3.4306  -2.9903  -2.9885  -2.5896  -2.5798  -2.3845  -2.3763
    -1.0004  -1.0003   1.1686   1.1701   1.3356   1.3370   1.3711   1.3717
     1.5037   1.5045   2.8695   2.8696   3.2713   3.2715   3.2859   3.2860
     3.9437   3.9437

          k =-0.0333 0.0577 0.0000 ( 11539 PWs)   bands (ev):

   -56.6649 -56.6649 -34.1398 -34.1397 -32.0442 -32.0442 -32.0044 -32.0043
   -15.0789 -15.0788 -14.1497 -14.1497  -6.3622  -6.3621  -3.6100  -3.6069
    -3.4260  -3.4243  -3.1043  -3.0977  -2.6270  -2.5741  -2.3899  -2.3430
    -1.0222  -1.0220   1.1352   1.1445   1.2523   1.2606   1.3815   1.3837
     1.4487   1.4495   2.9781   2.9783   3.3156   3.3157   3.3705   3.3706
     4.0260   4.0262

          k =-0.0500 0.0866 0.0000 ( 11533 PWs)   bands (ev):

   -56.6641 -56.6641 -34.1425 -34.1423 -32.0453 -32.0452 -32.0104 -32.0099
   -15.0344 -15.0340 -14.1293 -14.1292  -6.3022  -6.3019  -3.7483  -3.7432
    -3.4075  -3.4028  -3.2338  -3.2297  -2.7227  -2.6273  -2.3813  -2.2937
    -1.0624  -1.0620   1.0647   1.0844   1.1289   1.1470   1.3380   1.3615
     1.4711   1.4886   3.1063   3.1064   3.3875   3.3877   3.5082   3.5084
     4.1736   4.1743

          k =-0.0667 0.1155 0.0000 ( 11529 PWs)   bands (ev):

   -56.6631 -56.6631 -34.1462 -34.1457 -32.0475 -32.0472 -32.0177 -32.0168
   -14.9733 -14.9726 -14.1013 -14.1012  -6.2211  -6.2203  -3.9298  -3.9236
    -3.4715  -3.4420  -3.2973  -3.2774  -2.8657  -2.7496  -2.3627  -2.2506
    -1.1248  -1.1246   0.9877   0.9967   1.0177   1.0256   1.2529   1.2867
     1.5832   1.6026   3.2377   3.2379   3.4860   3.4864   3.6750   3.6752
     4.3930   4.3945

          k =-0.0833 0.1443 0.0000 ( 11527 PWs)   bands (ev):

   -56.6618 -56.6618 -34.1508 -34.1499 -32.0517 -32.0515 -32.0251 -32.0236
   -14.8971 -14.8956 -14.0662 -14.0661  -6.1219  -6.1202  -4.1389  -4.1327
    -3.6200  -3.5885  -3.2541  -3.2282  -3.0464  -2.9266  -2.3481  -2.2226
    -1.2133  -1.2111   0.8782   0.9149   0.9316   0.9681   1.1606   1.2060
     1.7270   1.7462   3.3786   3.3788   3.6104   3.6110   3.8490   3.8491
     4.6722   4.6739

          k =-0.1000 0.1732 0.0000 ( 11507 PWs)   bands (ev):

   -56.6603 -56.6603 -34.1563 -34.1548 -32.0593 -32.0588 -32.0305 -32.0289
   -14.8073 -14.8048 -14.0249 -14.0247  -6.0089  -6.0057  -4.3615  -4.3567
    -3.7797  -3.7530  -3.2587  -3.1887  -3.1632  -3.1416  -2.3439  -2.2117
    -1.3259  -1.3185   0.7806   0.8240   0.9038   0.9468   1.0755   1.1320
     1.8881   1.9056   3.5361   3.5362   3.7602   3.7610   4.0269   4.0272
     4.8646   4.8652

          k =-0.1167 0.2021 0.0000 ( 11512 PWs)   bands (ev):

   -56.6587 -56.6587 -34.1624 -34.1601 -32.0708 -32.0687 -32.0337 -32.0325
   -14.7060 -14.7021 -13.9783 -13.9780  -5.8883  -5.8826  -4.5840  -4.5826
    -3.9386  -3.9256  -3.4739  -3.3840  -3.1354  -3.0966  -2.3526  -2.2183
    -1.4545  -1.4372   0.7017   0.7420   0.9106   0.9543   1.0161   1.0798
     2.0555   2.0700   3.7137   3.7141   3.9351   3.9359   4.2140   4.2148
     5.0333   5.0340

          k =-0.1333 0.2309 0.0000 ( 11476 PWs)   bands (ev):

   -56.6568 -56.6568 -34.1690 -34.1658 -32.0844 -32.0803 -32.0356 -32.0350
   -14.5955 -14.5898 -13.9274 -13.9269  -5.7696  -5.7601  -4.7962  -4.7917
    -4.1134  -4.0987  -3.6776  -3.6266  -3.1006  -3.0505  -2.3757  -2.2421
    -1.5839  -1.5517   0.6382   0.6644   0.9490   0.9822   0.9942   1.0653
     2.2188   2.2296   3.9129   3.9140   4.1341   4.1348   4.4150   4.4167
     5.2233   5.2240

          k =-0.1500 0.2598 0.0000 ( 11482 PWs)   bands (ev):

   -56.6551 -56.6551 -34.1760 -34.1715 -32.0990 -32.0926 -32.0371 -32.0369
   -14.4786 -14.4707 -13.8734 -13.8727  -5.6708  -5.6552  -4.9778  -4.9639
    -4.3251  -4.2716  -3.8452  -3.8451  -3.1028  -3.0401  -2.4145  -2.2839
    -1.6952  -1.6436   0.5944   0.6006   1.0037   1.0123   1.0146   1.1012
     2.3688   2.3750   4.1335   4.1356   4.3562   4.3569   4.6326   4.6357
     5.4335   5.4341

          k =-0.1667 0.2887 0.0000 ( 11490 PWs)   bands (ev):

   -56.6533 -56.6533 -34.1831 -34.1773 -32.1138 -32.1047 -32.0391 -32.0381
   -14.3582 -14.3476 -13.8177 -13.8168  -5.6251  -5.6038  -5.0912  -5.0661
    -4.5559  -4.4706  -4.0140  -3.9686  -3.1546  -3.0818  -2.4689  -2.3442
    -1.7706  -1.6987   0.5665   0.5806   1.0304   1.0401   1.1016   1.1770
     2.4977   2.4987   4.3741   4.3779   4.6002   4.6006   4.8681   4.8733
     5.6624   5.6629

          k =-0.1833 0.3175 0.0000 ( 11506 PWs)   bands (ev):

   -56.6517 -56.6517 -34.1901 -34.1828 -32.1281 -32.1160 -32.0412 -32.0393
   -14.2378 -14.2241 -13.7617 -13.7607  -5.6576  -5.6400  -5.1061  -5.0732
    -4.7872  -4.6911  -4.1281  -4.0533  -3.2586  -3.1825  -2.5376  -2.4223
    -1.8023  -1.7129   0.5744   0.6061   1.0591   1.0664   1.2042   1.2731
     2.5952   2.6001   4.6312   4.6380   4.8645   4.8646   5.1218   5.1295
     5.9082   5.9086

          k =-0.2000 0.3464 0.0000 ( 11506 PWs)   bands (ev):

   -56.6501 -56.6501 -34.1968 -34.1879 -32.1415 -32.1262 -32.0436 -32.0406
   -14.1207 -14.1035 -13.7070 -13.7059  -5.7341  -5.7271  -5.1084  -5.0242
    -4.9563  -4.9098  -4.1988  -4.1057  -3.4072  -3.3354  -2.6185  -2.5156
    -1.7936  -1.6915   0.6274   0.6710   1.0788   1.0868   1.3155   1.3783
     2.6627   2.6745   4.8964   4.9088   5.1469   5.1472   5.3912   5.4024
     6.0051   6.0498

          k =-0.2167 0.3753 0.0000 ( 11512 PWs)   bands (ev):

   -56.6486 -56.6486 -34.2029 -34.1924 -32.1535 -32.1349 -32.0462 -32.0421
   -14.0105 -13.9896 -13.6552 -13.6539  -5.8123  -5.8078  -5.2730  -5.1365
    -4.9404  -4.9313  -4.2370  -4.1303  -3.5886  -3.5264  -2.7094  -2.6209
    -1.7519  -1.6414   0.7130   0.7557   1.0883   1.1083   1.4275   1.4835
     2.7043   2.7240   5.1453   5.1676   5.4452   5.4456   5.6553   5.6654
     5.8518   5.9039

          k =-0.2333 0.4041 0.0000 ( 11506 PWs)   bands (ev):

   -56.6473 -56.6473 -34.2085 -34.1963 -32.1641 -32.1419 -32.0490 -32.0437
   -13.9105 -13.8858 -13.6078 -13.6063  -5.8715  -5.8551  -5.4584  -5.3257
    -4.8801  -4.8704  -4.2496  -4.1307  -3.7916  -3.7422  -2.8074  -2.7345
    -1.6830  -1.5667   0.7844   0.8025   1.1177   1.1725   1.5309   1.5788
     2.7280   2.7568   5.2891   5.3116   5.7108   5.7501   5.7561   5.7604
     6.0289   6.0359

          k =-0.2500 0.4330 0.0000 ( 11546 PWs)   bands (ev):

   -56.6463 -56.6463 -34.2132 -34.1996 -32.1729 -32.1473 -32.0520 -32.0453
   -13.8237 -13.7952 -13.5660 -13.5645  -5.8946  -5.8651  -5.6214  -5.4902
    -4.8331  -4.8210  -4.2426  -4.1105  -4.0064  -3.9717  -2.9085  -2.8520
    -1.5916  -1.4704   0.7635   0.7684   1.2245   1.3130   1.6156   1.6545
     2.7448   2.7836   5.2271   5.2368   5.8104   5.8458   6.0736   6.0742
     6.3095   6.3190

          k =-0.2667 0.4619 0.0000 ( 11512 PWs)   bands (ev):

   -56.6453 -56.6453 -34.2171 -34.2021 -32.1798 -32.1511 -32.0550 -32.0470
   -13.7522 -13.7203 -13.5311 -13.5295  -5.8779  -5.8328  -5.7549  -5.6249
    -4.8036  -4.7899  -4.2350  -4.2245  -4.1925  -4.0731  -3.0072  -2.9681
    -1.4846  -1.3578   0.6645   0.6739   1.3884   1.4938   1.6738   1.7036
     2.7653   2.8138   5.0842   5.1162   5.8103   5.8545   6.3890   6.3924
     6.5903   6.6035

          k =-0.2833 0.4907 0.0000 ( 11554 PWs)   bands (ev):

   -56.6447 -56.6447 -34.2201 -34.2039 -32.1849 -32.1534 -32.0579 -32.0486
   -13.6976 -13.6627 -13.5039 -13.5023  -5.8652  -5.8130  -5.7576  -5.7270
    -4.7951  -4.7827  -4.4399  -4.4305  -4.1866  -4.0263  -3.0966  -3.0759
    -1.3725  -1.2385   0.5407   0.5457   1.5585   1.6738   1.7033   1.7255
     2.7943   2.8507   4.9663   5.0134   5.6902   5.7385   6.6895   6.6971
     6.9216   6.9240

          k =-0.3000 0.5196 0.0000 ( 11548 PWs)   bands (ev):

   -56.6442 -56.6442 -34.2221 -34.2051 -32.1883 -32.1545 -32.0603 -32.0499
   -13.6599 -13.6228 -13.4848 -13.4832  -5.9334  -5.7999  -5.7245  -5.6388
    -4.8312  -4.8204  -4.6285  -4.5904  -4.1571  -3.9782  -3.1685  -3.1661
    -1.2711  -1.1280   0.4181   0.4218   1.6914   1.7196   1.7257   1.8246
     2.8280   2.8896   4.9009   4.9607   5.5397   5.5821   6.9511   6.9646
     7.2671   7.2788

          k =-0.3167 0.5485 0.0000 ( 11552 PWs)   bands (ev):

   -56.6440 -56.6440 -34.2233 -34.2057 -32.1902 -32.1548 -32.0619 -32.0508
   -13.6387 -13.6001 -13.4737 -13.4722  -5.9744  -5.8406  -5.6201  -5.4936
    -4.9656  -4.9207  -4.7057  -4.6600  -4.1354  -3.9415  -3.2271  -3.2148
    -1.1994  -1.0477   0.3230   0.3357   1.6992   1.7173   1.7990   1.9214
     2.8562   2.9206   4.8969   4.9705   5.4025   5.4329   7.1332   7.1533
     7.5684   7.5943

          k =-0.3333 0.5774 0.0000 ( 11556 PWs)   bands (ev):

   -56.6439 -56.6439 -34.2237 -34.2059 -32.1907 -32.1548 -32.0625 -32.0511
   -13.6321 -13.5931 -13.4702 -13.4687  -5.9874  -5.8533  -5.5641  -5.3965
    -5.0707  -4.9830  -4.7200  -4.6756  -4.1278  -3.9279  -3.2483  -3.2304
    -1.1739  -1.0186   0.2880   0.3046   1.6949   1.7120   1.8297   1.9537
     2.8678   2.9330   4.9182   5.0028   5.3336   5.3530   7.1950   7.2180
     7.6971   7.7285

          k =-0.3167 0.5774 0.0000 ( 11568 PWs)   bands (ev):

   -56.6440 -56.6440 -34.2236 -34.2059 -32.1906 -32.1548 -32.0624 -32.0510
   -13.6336 -13.5947 -13.4710 -13.4695  -5.9844  -5.8504  -5.5810  -5.4285
    -5.0377  -4.9655  -4.7155  -4.6708  -4.1295  -3.9311  -3.2433  -3.2268
    -1.1800  -1.0256   0.2966   0.3122   1.6966   1.7140   1.8225   1.9462
     2.8645   2.9295   4.9059   4.9860   5.3574   5.3813   7.1822   7.2046
     7.6681   7.6991

          k =-0.3000 0.5774 0.0000 ( 11562 PWs)   bands (ev):

   -56.6440 -56.6440 -34.2234 -34.2058 -32.1903 -32.1549 -32.0619 -32.0507
   -13.6378 -13.5993 -13.4734 -13.4718  -5.9758  -5.8422  -5.6268  -5.5017
    -4.9678  -4.9228  -4.6956  -4.6513  -4.1341  -3.9399  -3.2295  -3.2166
    -1.1971  -1.0453   0.3211   0.3338   1.7027   1.7205   1.8022   1.9250
     2.8540   2.9184   4.8691   4.9399   5.4275   5.4609   7.1487   7.1696
     7.5951   7.6258

          k =-0.2833 0.5774 0.0000 ( 11554 PWs)   bands (ev):

   -56.6441 -56.6441 -34.2230 -34.2056 -32.1898 -32.1552 -32.0610 -32.0502
   -13.6444 -13.6065 -13.4771 -13.4755  -5.9624  -5.8293  -5.6910  -5.5894
    -4.9047  -4.8781  -4.6438  -4.6048  -4.1406  -3.9525  -3.2087  -3.2010
    -1.2231  -1.0750   0.3587   0.3672   1.7134   1.7325   1.7713   1.8924
     2.8362   2.8996   4.8155   4.8775   5.5343   5.5766   7.1018   7.1209
     7.4963   7.5275

          k =-0.2667 0.5774 0.0000 ( 11556 PWs)   bands (ev):

   -56.6442 -56.6442 -34.2224 -34.2054 -32.1892 -32.1556 -32.0598 -32.0496
   -13.6529 -13.6159 -13.4819 -13.4804  -5.9450  -5.8127  -5.7642  -5.6808
    -4.8708  -4.8502  -4.5489  -4.5222  -4.1476  -3.9671  -3.1833  -3.1814
    -1.2555  -1.1116   0.4059   0.4094   1.7167   1.7451   1.7500   1.8514
     2.8109   2.8730   4.7531   4.8082   5.6676   5.7169   7.0473   7.0644
     7.3831   7.4152

          k =-0.2500 0.5774 0.0000 ( 11550 PWs)   bands (ev):

   -56.6443 -56.6443 -34.2218 -34.2052 -32.1884 -32.1561 -32.0582 -32.0487
   -13.6631 -13.6272 -13.4878 -13.4862  -5.9258  -5.8394  -5.7930  -5.7716
    -4.8597  -4.8395  -4.4222  -4.4088  -4.1537  -3.9820  -3.1592  -3.1551
    -1.2918  -1.1523   0.4578   0.4596   1.6756   1.7635   1.7665   1.8115
     2.7785   2.8388   4.6867   4.7365   5.8200   5.8749   6.9893   7.0044
     7.2617   7.2951

          k =-0.2333 0.5774 0.0000 ( 11538 PWs)   bands (ev):

   -56.6444 -56.6444 -34.2210 -34.2051 -32.1876 -32.1569 -32.0564 -32.0476
   -13.6745 -13.6399 -13.4944 -13.4929  -5.9322  -5.8866  -5.8600  -5.7714
    -4.8596  -4.8395  -4.2796  -4.2756  -4.1560  -3.9953  -3.1356  -3.1261
    -1.3303  -1.1950   0.5095   0.5168   1.6229   1.7362   1.7962   1.8209
     2.7397   2.7978   4.6189   4.6645   5.9860   6.0457   6.9306   6.9437
     7.1353   7.1702

          k =-0.2167 0.5774 0.0000 ( 11556 PWs)   bands (ev):

   -56.6447 -56.6447 -34.2202 -34.2049 -32.1868 -32.1578 -32.0543 -32.0464
   -13.6868 -13.6537 -13.5017 -13.5002  -6.0011  -5.9448  -5.8678  -5.7487
    -4.8649  -4.8451  -4.1742  -4.1319  -4.1080  -4.0045  -3.1118  -3.0975
    -1.3695  -1.2382   0.5622   0.5749   1.5666   1.6813   1.8373   1.8598
     2.6955   2.7508   4.5512   4.5933   6.1601   6.2241   6.8725   6.8842
     7.0073   7.0433

          k =-0.2000 0.5774 0.0000 ( 11546 PWs)   bands (ev):

   -56.6448 -56.6448 -34.2193 -34.2047 -32.1859 -32.1588 -32.0521 -32.0450
   -13.6996 -13.6682 -13.5093 -13.5079  -6.0734  -6.0253  -5.8414  -5.7257
    -4.8730  -4.8540  -4.1653  -4.0288  -3.9620  -3.9539  -3.0885  -3.0706
    -1.4084  -1.2808   0.6139   0.6320   1.5090   1.6231   1.8864   1.9085
     2.6472   2.6993   4.4843   4.5235   6.3332   6.4005   6.8150   6.8271
     6.8859   6.9203

          k =-0.1833 0.5774 0.0000 ( 11530 PWs)   bands (ev):

   -56.6449 -56.6449 -34.2183 -34.2046 -32.1850 -32.1600 -32.0497 -32.0435
   -13.7126 -13.6831 -13.5172 -13.5158  -6.1426  -6.1009  -5.8140  -5.7035
    -4.8825  -4.8646  -4.1589  -4.0263  -3.8106  -3.7900  -3.0661  -3.0458
    -1.4465  -1.3224   0.6628   0.6860   1.4520   1.5650   1.9427   1.9649
     2.5966   2.6447   4.4190   4.4556   6.4757   6.5321   6.7589   6.7737
     6.8108   6.8266

          k =-0.1667 0.5774 0.0000 ( 11520 PWs)   bands (ev):

   -56.6451 -56.6451 -34.2173 -34.2046 -32.1842 -32.1613 -32.0472 -32.0419
   -13.7253 -13.6980 -13.5250 -13.5237  -6.2075  -6.1713  -5.7866  -5.6826
    -4.8927  -4.8763  -4.1491  -4.0266  -3.6509  -3.6251  -3.0443  -3.0234
    -1.4838  -1.3631   0.7073   0.7353   1.3976   1.5089   2.0049   2.0276
     2.5457   2.5890   4.3555   4.3899   6.4929   6.4986   6.7134   6.7164
     6.8600   6.8895

          k =-0.1500 0.5774 0.0000 ( 11530 PWs)   bands (ev):

   -56.6453 -56.6453 -34.2163 -34.2046 -32.1833 -32.1626 -32.0448 -32.0403
   -13.7377 -13.7126 -13.5327 -13.5314  -6.2675  -6.2361  -5.7601  -5.6637
    -4.9033  -4.8884  -4.1353  -4.0239  -3.4919  -3.4635  -3.0218  -3.0027
    -1.5207  -1.4033   0.7461   0.7783   1.3477   1.4566   2.0704   2.0944
     2.4976   2.5348   4.2944   4.3264   6.3763   6.3921   6.6588   6.6632
     6.9945   7.0514

          k =-0.1333 0.5774 0.0000 ( 11548 PWs)   bands (ev):

   -56.6455 -56.6455 -34.2153 -34.2046 -32.1824 -32.1640 -32.0424 -32.0387
   -13.7493 -13.7266 -13.5400 -13.5389  -6.3220  -6.2950  -5.7351  -5.6473
    -4.9136  -4.9004  -4.1177  -4.0182  -3.3389  -3.3122  -2.9936  -2.9809
    -1.5574  -1.4435   0.7781   0.8134   1.3044   1.4094   2.1345   2.1611
     2.4573   2.4866   4.2358   4.2656   6.2403   6.2619   6.5948   6.6072
     6.9587   6.9696

          k =-0.1167 0.5774 0.0000 ( 11534 PWs)   bands (ev):

   -56.6457 -56.6457 -34.2142 -34.2048 -32.1816 -32.1655 -32.0401 -32.0371
   -13.7600 -13.7398 -13.5468 -13.5458  -6.3707  -6.3477  -5.7119  -5.6336
    -4.9235  -4.9119  -4.0971  -4.0097  -3.2021  -3.1868  -2.9504  -2.9460
    -1.5948  -1.4848   0.8025   0.8390   1.2697   1.3687   2.1865   2.2182
     2.4351   2.4534   4.1805   4.2079   6.1062   6.1289   6.5097   6.5316
     6.8018   6.8086

          k =-0.1000 0.5774 0.0000 ( 11546 PWs)   bands (ev):

   -56.6458 -56.6458 -34.2132 -34.2050 -32.1807 -32.1669 -32.0381 -32.0356
   -13.7694 -13.7519 -13.5530 -13.5521  -6.4134  -6.3940  -5.6908  -5.6228
    -4.9326  -4.9227  -4.0744  -3.9995  -3.1101  -3.1038  -2.8899  -2.8589
    -1.6335  -1.5281   0.8191   0.8543   1.2452   1.3352   2.2106   2.2467
     2.4458   2.4534   4.1291   4.1537   5.9805   6.0024   6.3904   6.4162
     6.6918   6.7056

          k =-0.0833 0.5774 0.0000 ( 11538 PWs)   bands (ev):

   -56.6460 -56.6459 -34.2122 -34.2053 -32.1798 -32.1683 -32.0362 -32.0343
   -13.7775 -13.7628 -13.5585 -13.5577  -6.4496  -6.4338  -5.6721  -5.6148
    -4.9406  -4.9325  -4.0508  -3.9886  -3.0753  -3.0578  -2.7883  -2.7406
    -1.6737  -1.5740   0.8286   0.8598   1.2310   1.3089   2.2051   2.2387
     2.4895   2.4928   4.0826   4.1040   5.8681   5.8879   6.2508   6.2731
     6.6321   6.6446

          k =-0.0667 0.5774 0.0000 ( 11544 PWs)   bands (ev):

   -56.6461 -56.6461 -34.2113 -34.2057 -32.1789 -32.1697 -32.0346 -32.0332
   -13.7841 -13.7722 -13.5631 -13.5625  -6.4793  -6.4668  -5.6558  -5.6096
    -4.9474  -4.9409  -4.0278  -3.9782  -3.0595  -3.0412  -2.6702  -2.6171
    -1.7152  -1.6232   0.8323   0.8577   1.2257   1.2891   2.1864   2.2139
     2.5471   2.5495   4.0421   4.0600   5.7724   5.7893   6.1155   6.1328
     6.5969   6.6064

          k =-0.0500 0.5774 0.0000 ( 11540 PWs)   bands (ev):

   -56.6462 -56.6462 -34.2103 -34.2061 -32.1779 -32.1711 -32.0333 -32.0323
   -13.7889 -13.7800 -13.5667 -13.5663  -6.5022  -6.4929  -5.6418  -5.6070
    -4.9527  -4.9479  -4.0067  -3.9697  -3.0515  -3.0362  -2.5562  -2.5040
    -1.7559  -1.6751   0.8324   0.8511   1.2267   1.2744   2.1668   2.1875
     2.6034   2.6053   4.0091   4.0230   5.6962   5.7095   5.9993   6.0119
     6.5741   6.5808

          k =-0.0333 0.5774 0.0000 ( 11536 PWs)   bands (ev):

   -56.6462 -56.6462 -34.2095 -34.2066 -32.1769 -32.1724 -32.0324 -32.0317
   -13.7921 -13.7861 -13.5694 -13.5691  -6.5182  -6.5121  -5.6303  -5.6070
    -4.9564  -4.9532  -3.9888  -3.9642  -3.0467  -3.0359  -2.4572  -2.4126
    -1.7909  -1.7273   0.8312   0.8433   1.2315   1.2632   2.1516   2.1654
     2.6495   2.6509   3.9850   3.9945   5.6414   5.6505   5.9111   5.9193
     6.5594   6.5637

          k =-0.0167 0.5774 0.0000 ( 11536 PWs)   bands (ev):

   -56.6462 -56.6462 -34.2087 -34.2072 -32.1759 -32.1736 -32.0317 -32.0314
   -13.7934 -13.7904 -13.5709 -13.5708  -6.5273  -6.5242  -5.6210  -5.6094
    -4.9583  -4.9567  -3.9752  -3.9629  -3.0433  -3.0378  -2.3829  -2.3558
    -1.8108  -1.7741   0.8308   0.8366   1.2382   1.2539   2.1431   2.1500
     2.6797   2.6804   3.9709   3.9757   5.6090   5.6136   5.8566   5.8607
     6.5515   6.5535

          k = 0.0000 0.5774 0.0000 ( 11542 PWs)   bands (ev):

   -56.6463 -56.6463 -34.2079 -34.2079 -32.1748 -32.1748 -32.0314 -32.0314
   -13.7928 -13.7928 -13.5714 -13.5714  -6.5293  -6.5293  -5.6141  -5.6141
    -4.9584  -4.9584  -3.9665  -3.9665  -3.0404  -3.0404  -2.3455  -2.3455
    -1.8053  -1.8053   0.8323   0.8323   1.2458   1.2458   2.1425   2.1425
     2.6904   2.6904   3.9677   3.9677   5.5997   5.5997   5.8394   5.8394
     6.5495   6.5495

     Writing output data file ./outdir/nbse2.save/
 
     init_run     :      0.92s CPU      1.15s WALL (       1 calls)
     electrons    :    406.98s CPU    503.28s WALL (       1 calls)

     Called by init_run:
     wfcinit      :      0.00s CPU      0.00s WALL (       1 calls)
     potinit      :      0.16s CPU      0.24s WALL (       1 calls)
     hinit0       :      0.31s CPU      0.38s WALL (       1 calls)

     Called by electrons:
     c_bands      :    406.98s CPU    503.27s WALL (       1 calls)
     v_of_rho     :      0.04s CPU      0.05s WALL (       1 calls)
     newd         :      0.24s CPU      0.31s WALL (       1 calls)
     PAW_pot      :      0.10s CPU      0.16s WALL (       1 calls)

     Called by c_bands:
     init_us_2    :      0.08s CPU      0.11s WALL (      61 calls)
     cegterg      :    383.68s CPU    474.74s WALL (     130 calls)

     Called by *egterg:
     cdiaghg      :      4.15s CPU      4.41s WALL (    2208 calls)
     h_psi        :    334.95s CPU    418.89s WALL (    2338 calls)
     s_psi        :      4.73s CPU      5.07s WALL (    2338 calls)
     g_psi        :      1.26s CPU      1.34s WALL (    2147 calls)

     Called by h_psi:
     h_psi:calbec :      7.06s CPU      8.81s WALL (    2338 calls)
     vloc_psi     :    320.69s CPU    402.18s WALL (    2338 calls)
     add_vuspsi   :      4.73s CPU      5.11s WALL (    2338 calls)

     General routines
     calbec       :      7.05s CPU      8.80s WALL (    2338 calls)
     fft          :      0.04s CPU      0.10s WALL (      15 calls)
     fftw         :    254.88s CPU    328.52s WALL (  170616 calls)
     davcio       :      0.12s CPU      0.27s WALL (     122 calls)
 
     Parallel routines
     fft_scatt_xy :     37.06s CPU     41.53s WALL (  170631 calls)
     fft_scatt_yz :    115.13s CPU    170.71s WALL (  170631 calls)
 
     PWSCF        :   6m53.33s CPU   8m31.34s WALL

 
   This run was terminated on:  23:48:52   7Dec2020            

=------------------------------------------------------------------------------=
   JOB DONE.
=------------------------------------------------------------------------------=
