
     Program PWSCF v.6.6 starts on  7Dec2020 at 23:11:20 

     This program is part of the open-source Quantum ESPRESSO suite
     for quantum simulation of materials; please cite
         "P. Giannozzi et al., J. Phys.:Condens. Matter 21 395502 (2009);
         "P. Giannozzi et al., J. Phys.:Condens. Matter 29 465901 (2017);
          URL http://www.quantum-espresso.org", 
     in publications or presentations arising from this work. More details at
     http://www.quantum-espresso.org/quote

     Parallel version (MPI), running on     8 processors

     MPI processes distributed on     1 nodes
     R & G space division:  proc/nbgrp/npool/nimage =       8
     Fft bands division:     nmany     =       1
     Reading input from scf.in

     Current dimensions of program PWSCF are:
     Max number of different atomic species (ntypx) = 10
     Max number of k-points (npk) =  40000
     Max angular momentum in pseudopotentials (lmaxx) =  3
     file Se.rel-pbe-n-kjpaw_psl.0.2.UPF: wavefunction(s)  4S 4P renormalized
     file Nb.rel-pbe-spn-kjpaw_psl.1.0.0.UPF: wavefunction(s)  4S 4P 4P 4D renormalized

     Subspace diagonalization in iterative solution of the eigenvalue problem:
     a serial algorithm will be used

 
     Parallelization info
     --------------------
     sticks:   dense  smooth     PW     G-vecs:    dense   smooth      PW
     Min          82      82     24                11524    11524    1788
     Max          83      83     26                11541    11541    1801
     Sum         661     661    199                92285    92285   14351
 


     bravais-lattice index     =            4
     lattice parameter (alat)  =       6.5940  a.u.
     unit-cell volume          =    1662.8322 (a.u.)^3
     number of atoms/cell      =            3
     number of atomic types    =            2
     number of electrons       =        25.00
     number of Kohn-Sham states=           34
     kinetic-energy cutoff     =      55.2247  Ry
     charge density cutoff     =     220.8988  Ry
     convergence threshold     =      1.0E-08
     mixing beta               =       0.4000
     number of iterations used =            8  plain     mixing
     Exchange-correlation= SLA PW PBX PBC
                           (   1   4   3   4   0   0   0)
     Non magnetic calculation with spin-orbit


     celldm(1)=   6.594010  celldm(2)=   0.000000  celldm(3)=   6.696825
     celldm(4)=   0.000000  celldm(5)=   0.000000  celldm(6)=   0.000000

     crystal axes: (cart. coord. in units of alat)
               a(1) = (   1.000000   0.000000   0.000000 )  
               a(2) = (  -0.500000   0.866025   0.000000 )  
               a(3) = (   0.000000   0.000000   6.696825 )  

     reciprocal axes: (cart. coord. in units 2 pi/alat)
               b(1) = (  1.000000  0.577350  0.000000 )  
               b(2) = (  0.000000  1.154701  0.000000 )  
               b(3) = (  0.000000  0.000000  0.149325 )  


     PseudoPot. # 1 for Se read from file:
     ../Pseudos/Se.rel-pbe-n-kjpaw_psl.0.2.UPF
     MD5 check sum: 45c28741602d7a872c405fe9dd485dc8
     Pseudo is Projector augmented-wave + core cor, Zval =  6.0
     Generated using "atomic" code by A. Dal Corso v.5.0.2 svn rev. 9415
     Shape of augmentation charge: PSQ
     Using radial grid of 1211 points,  6 beta functions with: 
                l(1) =   0
                l(2) =   0
                l(3) =   1
                l(4) =   1
                l(5) =   1
                l(6) =   1
     Q(r) pseudized with 0 coefficients 


     PseudoPot. # 2 for Nb read from file:
     ../Pseudos/Nb.rel-pbe-spn-kjpaw_psl.1.0.0.UPF
     MD5 check sum: 2306cb666db741a7975d44936f4113f9
     Pseudo is Projector augmented-wave + core cor, Zval = 13.0
     Generated using "atomic" code by A. Dal Corso v.6.2.2
     Shape of augmentation charge: PSQ
     Using radial grid of 1227 points, 10 beta functions with: 
                l(1) =   0
                l(2) =   0
                l(3) =   1
                l(4) =   1
                l(5) =   1
                l(6) =   1
                l(7) =   2
                l(8) =   2
                l(9) =   2
               l(10) =   2
     Q(r) pseudized with 0 coefficients 


     atomic species   valence    mass     pseudopotential
        Se             6.00    78.96000     Se( 1.00)
        Nb            13.00    92.90638     Nb( 1.00)

     12 Sym. Ops. (no inversion) found



   Cartesian axes

     site n.     atom                  positions (alat units)
         1           Se  tau(   1) = (   0.0000000   0.5773508   3.8310119  )
         2           Nb  tau(   2) = (   0.0000000   0.0000000   3.3484172  )
         3           Se  tau(   3) = (   0.0000000   0.5773508   2.8658222  )

     number of k points=     4  Gaussian smearing, width (Ry)=  0.0100
                       cart. coord. in units 2pi/alat
        k(    1) = (   0.0000000   0.0000000   0.0000000), wk =   0.0625000
        k(    2) = (   0.0000000   0.2886751   0.0000000), wk =   0.3750000
        k(    3) = (   0.0000000  -0.5773503   0.0000000), wk =   0.1875000
        k(    4) = (   0.2500000   0.4330127   0.0000000), wk =   0.3750000

     Dense  grid:    92285 G-vectors     FFT dimensions: (  32,  32, 216)

     Estimated max dynamical RAM per process >     143.46 MB

     Estimated total dynamical RAM >       1.12 GB

     Initial potential from superposition of free atoms

     starting charge   24.99852, renormalised to   25.00000

     negative rho (up, down):  3.063E-03 0.000E+00
     Starting wfcs are   42 randomized atomic wfcs
     Checking if some PAW data can be deallocated... 

     total cpu time spent up to now is        8.6 secs

     Self-consistent Calculation

     iteration #  1     ecut=    55.22 Ry     beta= 0.40
     Davidson diagonalization with overlap
     ethr =  1.00E-02,  avg # of iterations =  2.0

     Threshold (ethr) on eigenvalues was too large:
     Diagonalizing with lowered threshold

     Davidson diagonalization with overlap
     ethr =  2.67E-04,  avg # of iterations =  2.2

     negative rho (up, down):  3.236E-03 0.000E+00

     total cpu time spent up to now is       21.7 secs

     total energy              =    -713.87884304 Ry
     estimated scf accuracy    <       0.08374303 Ry

     iteration #  2     ecut=    55.22 Ry     beta= 0.40
     Davidson diagonalization with overlap
     ethr =  3.35E-04,  avg # of iterations =  2.0

     negative rho (up, down):  3.315E-03 0.000E+00

     total cpu time spent up to now is       28.1 secs

     total energy              =    -713.88438415 Ry
     estimated scf accuracy    <       0.02144568 Ry

     iteration #  3     ecut=    55.22 Ry     beta= 0.40
     Davidson diagonalization with overlap
     ethr =  8.58E-05,  avg # of iterations =  2.0

     negative rho (up, down):  3.372E-03 0.000E+00

     total cpu time spent up to now is       33.7 secs

     total energy              =    -713.88631330 Ry
     estimated scf accuracy    <       0.02740305 Ry

     iteration #  4     ecut=    55.22 Ry     beta= 0.40
     Davidson diagonalization with overlap
     ethr =  8.58E-05,  avg # of iterations =  1.5

     negative rho (up, down):  3.445E-03 0.000E+00

     total cpu time spent up to now is       38.5 secs

     total energy              =    -713.88964199 Ry
     estimated scf accuracy    <       0.00119320 Ry

     iteration #  5     ecut=    55.22 Ry     beta= 0.40
     Davidson diagonalization with overlap
     ethr =  4.77E-06,  avg # of iterations =  2.0

     negative rho (up, down):  3.453E-03 0.000E+00

     total cpu time spent up to now is       44.8 secs

     total energy              =    -713.88973178 Ry
     estimated scf accuracy    <       0.00005161 Ry

     iteration #  6     ecut=    55.22 Ry     beta= 0.40
     Davidson diagonalization with overlap
     ethr =  2.06E-07,  avg # of iterations =  2.2

     negative rho (up, down):  3.449E-03 0.000E+00

     total cpu time spent up to now is       50.9 secs

     total energy              =    -713.88974092 Ry
     estimated scf accuracy    <       0.00000352 Ry

     iteration #  7     ecut=    55.22 Ry     beta= 0.40
     Davidson diagonalization with overlap
     ethr =  1.41E-08,  avg # of iterations =  3.0

     negative rho (up, down):  3.447E-03 0.000E+00

     total cpu time spent up to now is       58.4 secs

     total energy              =    -713.88974157 Ry
     estimated scf accuracy    <       0.00000028 Ry

     iteration #  8     ecut=    55.22 Ry     beta= 0.40
     Davidson diagonalization with overlap
     ethr =  1.11E-09,  avg # of iterations =  2.2

     negative rho (up, down):  3.446E-03 0.000E+00

     total cpu time spent up to now is       64.8 secs

     total energy              =    -713.88974160 Ry
     estimated scf accuracy    <       0.00000006 Ry

     iteration #  9     ecut=    55.22 Ry     beta= 0.40
     Davidson diagonalization with overlap
     ethr =  2.40E-10,  avg # of iterations =  2.0

     negative rho (up, down):  3.446E-03 0.000E+00

     total cpu time spent up to now is       71.9 secs

     End of self-consistent calculation

          k = 0.0000 0.0000 0.0000 ( 11535 PWs)   bands (ev):

   -56.6645 -56.6645 -34.1365 -34.1365 -32.0426 -32.0426 -31.9982 -31.9982
   -15.1140 -15.1140 -14.1653 -14.1653  -6.4104  -6.4104  -3.5162  -3.5162
    -3.4225  -3.4225  -2.9416  -2.9416  -2.5904  -2.5904  -2.3812  -2.3812
    -0.9927  -0.9927   1.1737   1.1737   1.3634   1.3634   1.3760   1.3760
     1.5331   1.5331

          k = 0.0000 0.2887 0.0000 ( 11488 PWs)   bands (ev):

   -56.6547 -56.6547 -34.1706 -34.1706 -32.0932 -32.0932 -32.0318 -32.0318
   -14.5161 -14.5159 -13.8924 -13.8923  -5.7399  -5.7397  -4.9545  -4.9543
    -4.4006  -4.4004  -3.3584  -3.3584  -2.9207  -2.9206  -2.6166  -2.6165
    -1.6919  -1.6918   0.7946   0.7948   0.9024   0.9025   1.2811   1.2812
     2.1901   2.1901

          k = 0.0000-0.5774 0.0000 ( 11542 PWs)   bands (ev):

   -56.6453 -56.6453 -34.2069 -34.2069 -32.1737 -32.1737 -32.0304 -32.0304
   -13.7917 -13.7917 -13.5704 -13.5704  -6.5282  -6.5282  -5.6131  -5.6131
    -4.9574  -4.9574  -3.9654  -3.9654  -3.0396  -3.0396  -2.3444  -2.3444
    -1.8043  -1.8043   0.8335   0.8335   1.2468   1.2468   2.1434   2.1434
     2.6913   2.6913

          k = 0.2500 0.4330 0.0000 ( 11546 PWs)   bands (ev):

   -56.6453 -56.6453 -34.2122 -34.1986 -32.1718 -32.1463 -32.0510 -32.0444
   -13.8226 -13.7941 -13.5650 -13.5634  -5.8935  -5.8640  -5.6204  -5.4891
    -4.8321  -4.8200  -4.2416  -4.1096  -4.0054  -3.9707  -2.9077  -2.8512
    -1.5905  -1.4693   0.7645   0.7694   1.2256   1.3141   1.6165   1.6554
     2.7458   2.7846

     the Fermi energy is    -1.6432 ev

!    total energy              =    -713.88974161 Ry

     total all-electron energy =    -17362.122832 Ry
     estimated scf accuracy    <          8.5E-09 Ry
     smearing contrib. (-TS)   =      -0.00323921 Ry
     internal energy E=F+TS    =    -713.88650240 Ry

     The total energy is F=E-TS. E is the sum of the following terms:
     one-electron contribution =   -1032.84873609 Ry
     hartree contribution      =     518.39991992 Ry
     xc contribution           =     -45.59662085 Ry
     ewald contribution        =     390.45742724 Ry
     one-center paw contrib.   =    -544.29849262 Ry

     convergence has been achieved in   9 iterations

     Writing output data file ./outdir/nbse2.save/
 
     init_run     :      2.64s CPU      4.24s WALL (       1 calls)
     electrons    :     48.57s CPU     63.35s WALL (       1 calls)

     Called by init_run:
     wfcinit      :      1.62s CPU      2.48s WALL (       1 calls)
     potinit      :      0.28s CPU      0.46s WALL (       1 calls)
     hinit0       :      0.36s CPU      0.62s WALL (       1 calls)

     Called by electrons:
     c_bands      :     32.89s CPU     41.80s WALL (      10 calls)
     sum_band     :     10.78s CPU     14.52s WALL (      10 calls)
     v_of_rho     :      0.54s CPU      0.75s WALL (      10 calls)
     newd         :      2.73s CPU      4.10s WALL (      10 calls)
     PAW_pot      :      1.07s CPU      1.80s WALL (      10 calls)
     mix_rho      :      0.73s CPU      0.87s WALL (      10 calls)

     Called by c_bands:
     init_us_2    :      0.16s CPU      0.18s WALL (      84 calls)
     cegterg      :     31.53s CPU     40.23s WALL (      40 calls)

     Called by *egterg:
     cdiaghg      :      0.12s CPU      0.17s WALL (     121 calls)
     h_psi        :     29.44s CPU     38.10s WALL (     129 calls)
     s_psi        :      0.35s CPU      0.39s WALL (     129 calls)
     g_psi        :      0.07s CPU      0.08s WALL (      85 calls)

     Called by h_psi:
     h_psi:calbec :      0.51s CPU      0.61s WALL (     129 calls)
     vloc_psi     :     28.45s CPU     36.92s WALL (     129 calls)
     add_vuspsi   :      0.34s CPU      0.41s WALL (     129 calls)

     General routines
     calbec       :      0.72s CPU      0.89s WALL (     169 calls)
     fft          :      0.57s CPU      0.87s WALL (     138 calls)
     ffts         :      0.11s CPU      0.16s WALL (      40 calls)
     fftw         :     28.37s CPU     38.13s WALL (   16328 calls)
 
     Parallel routines
     fft_scatt_xy :      3.37s CPU      3.98s WALL (   16506 calls)
     fft_scatt_yz :     15.60s CPU     23.25s WALL (   16506 calls)
 
     PWSCF        :     55.17s CPU   1m12.07s WALL

 
   This run was terminated on:  23:12:32   7Dec2020            

=------------------------------------------------------------------------------=
   JOB DONE.
=------------------------------------------------------------------------------=
